    1C
    1UUSER                                                              
    1UDATE              06.may.2022                                     
    1UTIME              17:36:51                                        
    1UHOST                                                              
    1UPGM               CalculiX                                        
    1UVERSION           Version 2.16                             
    1UCOMPILETIME       Tue 20 Jul 2021 11:34:44 AM CDT                    
    1UDIR                                                               
    1UDBN                                                               
    1UMAT    1ACETATO                                                   
    2C                          2410                                     1
 -1         1 6.60000E-02 2.99750E-02 1.60000E-01
 -1         2 6.58542E-02 2.99750E-02 1.60000E-01
 -1         3 6.57083E-02 2.99750E-02 1.60000E-01
 -1         4 6.55625E-02 2.99750E-02 1.60000E-01
 -1         5 6.54167E-02 2.99750E-02 1.60000E-01
 -1         6 6.52708E-02 2.99750E-02 1.60000E-01
 -1         7 6.51250E-02 2.99750E-02 1.60000E-01
 -1         8 6.49792E-02 2.99750E-02 1.60000E-01
 -1         9 6.48333E-02 2.99750E-02 1.60000E-01
 -1        10 6.46875E-02 2.99750E-02 1.60000E-01
 -1        11 6.45417E-02 2.99750E-02 1.60000E-01
 -1        12 6.43958E-02 2.99750E-02 1.60000E-01
 -1        13 6.42500E-02 2.99750E-02 1.60000E-01
 -1        14 6.41042E-02 2.99750E-02 1.60000E-01
 -1        15 6.39583E-02 2.99750E-02 1.60000E-01
 -1        16 6.38125E-02 2.99750E-02 1.60000E-01
 -1        17 6.36666E-02 2.99750E-02 1.60000E-01
 -1        18 6.35208E-02 2.99750E-02 1.60000E-01
 -1        19 6.33750E-02 2.99750E-02 1.60000E-01
 -1        20 6.32292E-02 2.99750E-02 1.60000E-01
 -1        21 6.30833E-02 2.99750E-02 1.60000E-01
 -1        22 6.29375E-02 2.99750E-02 1.60000E-01
 -1        23 6.27916E-02 2.99750E-02 1.60000E-01
 -1        24 6.26458E-02 2.99750E-02 1.60000E-01
 -1        25 6.25000E-02 2.99750E-02 1.60000E-01
 -1        26 6.23541E-02 2.99750E-02 1.60000E-01
 -1        27 6.22083E-02 2.99750E-02 1.60000E-01
 -1        28 6.20625E-02 2.99750E-02 1.60000E-01
 -1        29 6.19166E-02 2.99750E-02 1.60000E-01
 -1        30 6.17708E-02 2.99750E-02 1.60000E-01
 -1        31 6.16250E-02 2.99750E-02 1.60000E-01
 -1        32 6.14791E-02 2.99750E-02 1.60000E-01
 -1        33 6.13333E-02 2.99750E-02 1.60000E-01
 -1        34 6.11875E-02 2.99750E-02 1.60000E-01
 -1        35 6.10416E-02 2.99750E-02 1.60000E-01
 -1        36 6.08958E-02 2.99750E-02 1.60000E-01
 -1        37 6.07500E-02 2.99750E-02 1.60000E-01
 -1        38 6.06041E-02 2.99750E-02 1.60000E-01
 -1        39 6.04583E-02 2.99750E-02 1.60000E-01
 -1        40 6.03125E-02 2.99750E-02 1.60000E-01
 -1        41 6.01666E-02 2.99750E-02 1.60000E-01
 -1        42 6.00208E-02 2.99750E-02 1.60000E-01
 -1        43 5.98750E-02 2.99750E-02 1.60000E-01
 -1        44 5.97291E-02 2.99750E-02 1.60000E-01
 -1        45 5.95833E-02 2.99750E-02 1.60000E-01
 -1        46 5.94375E-02 2.99750E-02 1.60000E-01
 -1        47 5.92916E-02 2.99750E-02 1.60000E-01
 -1        48 5.91458E-02 2.99750E-02 1.60000E-01
 -1        49 5.90000E-02 2.99750E-02 1.60000E-01
 -1        50 5.88541E-02 2.99750E-02 1.60000E-01
 -1        51 5.87083E-02 2.99750E-02 1.60000E-01
 -1        52 5.85625E-02 2.99750E-02 1.60000E-01
 -1        53 5.84166E-02 2.99750E-02 1.60000E-01
 -1        54 5.82708E-02 2.99750E-02 1.60000E-01
 -1        55 5.81250E-02 2.99750E-02 1.60000E-01
 -1        56 5.79791E-02 2.99750E-02 1.60000E-01
 -1        57 5.78333E-02 2.99750E-02 1.60000E-01
 -1        58 5.76875E-02 2.99750E-02 1.60000E-01
 -1        59 5.75416E-02 2.99750E-02 1.60000E-01
 -1        60 5.73958E-02 2.99750E-02 1.60000E-01
 -1        61 5.72499E-02 2.99750E-02 1.60000E-01
 -1        62 5.71041E-02 2.99750E-02 1.60000E-01
 -1        63 5.69583E-02 2.99750E-02 1.60000E-01
 -1        64 5.68124E-02 2.99750E-02 1.60000E-01
 -1        65 5.66666E-02 2.99750E-02 1.60000E-01
 -1        66 5.65208E-02 2.99750E-02 1.60000E-01
 -1        67 5.63749E-02 2.99750E-02 1.60000E-01
 -1        68 5.62291E-02 2.99750E-02 1.60000E-01
 -1        69 5.60833E-02 2.99750E-02 1.60000E-01
 -1        70 5.59374E-02 2.99750E-02 1.60000E-01
 -1        71 5.57916E-02 2.99750E-02 1.60000E-01
 -1        72 5.56458E-02 2.99750E-02 1.60000E-01
 -1        73 5.54999E-02 2.99750E-02 1.60000E-01
 -1        74 5.53541E-02 2.99750E-02 1.60000E-01
 -1        75 5.52083E-02 2.99750E-02 1.60000E-01
 -1        76 5.50624E-02 2.99750E-02 1.60000E-01
 -1        77 5.49166E-02 2.99750E-02 1.60000E-01
 -1        78 5.47708E-02 2.99750E-02 1.60000E-01
 -1        79 5.46249E-02 2.99750E-02 1.60000E-01
 -1        80 5.44791E-02 2.99750E-02 1.60000E-01
 -1        81 5.43333E-02 2.99750E-02 1.60000E-01
 -1        82 5.41874E-02 2.99750E-02 1.60000E-01
 -1        83 5.40416E-02 2.99750E-02 1.60000E-01
 -1        84 5.38958E-02 2.99750E-02 1.60000E-01
 -1        85 5.37499E-02 2.99750E-02 1.60000E-01
 -1        86 5.36041E-02 2.99750E-02 1.60000E-01
 -1        87 5.34583E-02 2.99750E-02 1.60000E-01
 -1        88 5.33124E-02 2.99750E-02 1.60000E-01
 -1        89 5.31666E-02 2.99750E-02 1.60000E-01
 -1        90 5.30208E-02 2.99750E-02 1.60000E-01
 -1        91 5.28749E-02 2.99750E-02 1.60000E-01
 -1        92 5.27291E-02 2.99750E-02 1.60000E-01
 -1        93 5.25833E-02 2.99750E-02 1.60000E-01
 -1        94 5.24374E-02 2.99750E-02 1.60000E-01
 -1        95 5.22916E-02 2.99750E-02 1.60000E-01
 -1        96 5.21457E-02 2.99750E-02 1.60000E-01
 -1        97 5.19999E-02 2.99750E-02 1.60000E-01
 -1        98 5.18541E-02 2.99750E-02 1.60000E-01
 -1        99 5.17082E-02 2.99750E-02 1.60000E-01
 -1       100 5.15624E-02 2.99750E-02 1.60000E-01
 -1       101 5.14166E-02 2.99750E-02 1.60000E-01
 -1       102 5.12707E-02 2.99750E-02 1.60000E-01
 -1       103 5.11249E-02 2.99750E-02 1.60000E-01
 -1       104 5.09791E-02 2.99750E-02 1.60000E-01
 -1       105 5.08332E-02 2.99750E-02 1.60000E-01
 -1       106 5.06874E-02 2.99750E-02 1.60000E-01
 -1       107 5.05416E-02 2.99750E-02 1.60000E-01
 -1       108 5.03957E-02 2.99750E-02 1.60000E-01
 -1       109 5.02499E-02 2.99750E-02 1.60000E-01
 -1       110 5.01041E-02 2.99750E-02 1.60000E-01
 -1       111 4.99582E-02 2.99750E-02 1.60000E-01
 -1       112 4.98124E-02 2.99750E-02 1.60000E-01
 -1       113 4.96666E-02 2.99750E-02 1.60000E-01
 -1       114 4.95207E-02 2.99750E-02 1.60000E-01
 -1       115 4.93749E-02 2.99750E-02 1.60000E-01
 -1       116 4.92291E-02 2.99750E-02 1.60000E-01
 -1       117 4.90832E-02 2.99750E-02 1.60000E-01
 -1       118 4.89374E-02 2.99750E-02 1.60000E-01
 -1       119 4.87916E-02 2.99750E-02 1.60000E-01
 -1       120 4.86457E-02 2.99750E-02 1.60000E-01
 -1       121 4.84999E-02 2.99750E-02 1.60000E-01
 -1       122 4.83541E-02 2.99750E-02 1.60000E-01
 -1       123 4.82082E-02 2.99750E-02 1.60000E-01
 -1       124 4.80624E-02 2.99750E-02 1.60000E-01
 -1       125 4.79166E-02 2.99750E-02 1.60000E-01
 -1       126 4.77707E-02 2.99750E-02 1.60000E-01
 -1       127 4.76249E-02 2.99750E-02 1.60000E-01
 -1       128 4.74791E-02 2.99750E-02 1.60000E-01
 -1       129 4.73332E-02 2.99750E-02 1.60000E-01
 -1       130 4.71874E-02 2.99750E-02 1.60000E-01
 -1       131 4.70416E-02 2.99750E-02 1.60000E-01
 -1       132 4.68957E-02 2.99750E-02 1.60000E-01
 -1       133 4.67499E-02 2.99750E-02 1.60000E-01
 -1       134 4.66040E-02 2.99750E-02 1.60000E-01
 -1       135 4.64582E-02 2.99750E-02 1.60000E-01
 -1       136 4.63124E-02 2.99750E-02 1.60000E-01
 -1       137 4.61665E-02 2.99750E-02 1.60000E-01
 -1       138 4.60207E-02 2.99750E-02 1.60000E-01
 -1       139 4.58749E-02 2.99750E-02 1.60000E-01
 -1       140 4.57290E-02 2.99750E-02 1.60000E-01
 -1       141 4.55832E-02 2.99750E-02 1.60000E-01
 -1       142 4.54374E-02 2.99750E-02 1.60000E-01
 -1       143 4.52915E-02 2.99750E-02 1.60000E-01
 -1       144 4.51457E-02 2.99750E-02 1.60000E-01
 -1       145 4.49999E-02 2.99750E-02 1.60000E-01
 -1       146 4.48540E-02 2.99750E-02 1.60000E-01
 -1       147 4.47082E-02 2.99750E-02 1.60000E-01
 -1       148 4.45624E-02 2.99750E-02 1.60000E-01
 -1       149 4.44165E-02 2.99750E-02 1.60000E-01
 -1       150 4.42707E-02 2.99750E-02 1.60000E-01
 -1       151 4.41249E-02 2.99750E-02 1.60000E-01
 -1       152 4.39790E-02 2.99750E-02 1.60000E-01
 -1       153 4.38332E-02 2.99750E-02 1.60000E-01
 -1       154 4.36874E-02 2.99750E-02 1.60000E-01
 -1       155 4.35415E-02 2.99750E-02 1.60000E-01
 -1       156 4.33957E-02 2.99750E-02 1.60000E-01
 -1       157 4.32499E-02 2.99750E-02 1.60000E-01
 -1       158 4.31040E-02 2.99750E-02 1.60000E-01
 -1       159 4.29582E-02 2.99750E-02 1.60000E-01
 -1       160 4.28124E-02 2.99750E-02 1.60000E-01
 -1       161 4.26665E-02 2.99750E-02 1.60000E-01
 -1       162 4.25207E-02 2.99750E-02 1.60000E-01
 -1       163 4.23749E-02 2.99750E-02 1.60000E-01
 -1       164 4.22290E-02 2.99750E-02 1.60000E-01
 -1       165 4.20832E-02 2.99750E-02 1.60000E-01
 -1       166 4.19374E-02 2.99750E-02 1.60000E-01
 -1       167 4.17915E-02 2.99750E-02 1.60000E-01
 -1       168 4.16457E-02 2.99750E-02 1.60000E-01
 -1       169 4.14999E-02 2.99750E-02 1.60000E-01
 -1       170 4.13540E-02 2.99750E-02 1.60000E-01
 -1       171 4.12082E-02 2.99750E-02 1.60000E-01
 -1       172 4.10624E-02 2.99750E-02 1.60000E-01
 -1       173 4.09165E-02 2.99750E-02 1.60000E-01
 -1       174 4.07707E-02 2.99750E-02 1.60000E-01
 -1       175 4.06248E-02 2.99750E-02 1.60000E-01
 -1       176 4.04790E-02 2.99750E-02 1.60000E-01
 -1       177 4.03332E-02 2.99750E-02 1.60000E-01
 -1       178 4.01873E-02 2.99750E-02 1.60000E-01
 -1       179 4.00415E-02 2.99750E-02 1.60000E-01
 -1       180 3.98957E-02 2.99750E-02 1.60000E-01
 -1       181 3.97498E-02 2.99750E-02 1.60000E-01
 -1       182 3.96040E-02 2.99750E-02 1.60000E-01
 -1       183 3.94582E-02 2.99750E-02 1.60000E-01
 -1       184 3.93123E-02 2.99750E-02 1.60000E-01
 -1       185 3.91665E-02 2.99750E-02 1.60000E-01
 -1       186 3.90207E-02 2.99750E-02 1.60000E-01
 -1       187 3.88748E-02 2.99750E-02 1.60000E-01
 -1       188 3.87290E-02 2.99750E-02 1.60000E-01
 -1       189 3.85832E-02 2.99750E-02 1.60000E-01
 -1       190 3.84373E-02 2.99750E-02 1.60000E-01
 -1       191 3.82915E-02 2.99750E-02 1.60000E-01
 -1       192 3.81457E-02 2.99750E-02 1.60000E-01
 -1       193 3.79998E-02 2.99750E-02 1.60000E-01
 -1       194 3.78540E-02 2.99750E-02 1.60000E-01
 -1       195 3.77082E-02 2.99750E-02 1.60000E-01
 -1       196 3.75623E-02 2.99750E-02 1.60000E-01
 -1       197 3.74165E-02 2.99750E-02 1.60000E-01
 -1       198 3.72707E-02 2.99750E-02 1.60000E-01
 -1       199 3.71248E-02 2.99750E-02 1.60000E-01
 -1       200 3.69790E-02 2.99750E-02 1.60000E-01
 -1       201 3.68332E-02 2.99750E-02 1.60000E-01
 -1       202 3.66873E-02 2.99750E-02 1.60000E-01
 -1       203 3.65415E-02 2.99750E-02 1.60000E-01
 -1       204 3.63957E-02 2.99750E-02 1.60000E-01
 -1       205 3.62498E-02 2.99750E-02 1.60000E-01
 -1       206 3.61040E-02 2.99750E-02 1.60000E-01
 -1       207 3.59582E-02 2.99750E-02 1.60000E-01
 -1       208 3.58123E-02 2.99750E-02 1.60000E-01
 -1       209 3.56665E-02 2.99750E-02 1.60000E-01
 -1       210 3.55207E-02 2.99750E-02 1.60000E-01
 -1       211 3.53748E-02 2.99750E-02 1.60000E-01
 -1       212 3.52290E-02 2.99750E-02 1.60000E-01
 -1       213 3.50831E-02 2.99750E-02 1.60000E-01
 -1       214 3.49373E-02 2.99750E-02 1.60000E-01
 -1       215 3.47915E-02 2.99750E-02 1.60000E-01
 -1       216 3.46456E-02 2.99750E-02 1.60000E-01
 -1       217 3.44998E-02 2.99750E-02 1.60000E-01
 -1       218 3.43540E-02 2.99750E-02 1.60000E-01
 -1       219 3.42081E-02 2.99750E-02 1.60000E-01
 -1       220 3.40623E-02 2.99750E-02 1.60000E-01
 -1       221 3.39165E-02 2.99750E-02 1.60000E-01
 -1       222 3.37706E-02 2.99750E-02 1.60000E-01
 -1       223 3.36248E-02 2.99750E-02 1.60000E-01
 -1       224 3.34790E-02 2.99750E-02 1.60000E-01
 -1       225 3.33331E-02 2.99750E-02 1.60000E-01
 -1       226 3.31873E-02 2.99750E-02 1.60000E-01
 -1       227 3.30415E-02 2.99750E-02 1.60000E-01
 -1       228 3.28956E-02 2.99750E-02 1.60000E-01
 -1       229 3.27498E-02 2.99750E-02 1.60000E-01
 -1       230 3.26040E-02 2.99750E-02 1.60000E-01
 -1       231 3.24581E-02 2.99750E-02 1.60000E-01
 -1       232 3.23123E-02 2.99750E-02 1.60000E-01
 -1       233 3.21665E-02 2.99750E-02 1.60000E-01
 -1       234 3.20206E-02 2.99750E-02 1.60000E-01
 -1       235 3.18748E-02 2.99750E-02 1.60000E-01
 -1       236 3.17290E-02 2.99750E-02 1.60000E-01
 -1       237 3.15831E-02 2.99750E-02 1.60000E-01
 -1       238 3.14373E-02 2.99750E-02 1.60000E-01
 -1       239 3.12915E-02 2.99750E-02 1.60000E-01
 -1       240 3.11456E-02 2.99750E-02 1.60000E-01
 -1       241 3.09998E-02 2.99750E-02 1.60000E-01
 -1       242 6.60000E-02 2.99750E-02 0.00000E+00
 -1       243 6.58542E-02 2.99750E-02 0.00000E+00
 -1       244 6.57083E-02 2.99750E-02 0.00000E+00
 -1       245 6.55625E-02 2.99750E-02 0.00000E+00
 -1       246 6.54167E-02 2.99750E-02 0.00000E+00
 -1       247 6.52708E-02 2.99750E-02 0.00000E+00
 -1       248 6.51250E-02 2.99750E-02 0.00000E+00
 -1       249 6.49792E-02 2.99750E-02 0.00000E+00
 -1       250 6.48333E-02 2.99750E-02 0.00000E+00
 -1       251 6.46875E-02 2.99750E-02 0.00000E+00
 -1       252 6.45417E-02 2.99750E-02 0.00000E+00
 -1       253 6.43958E-02 2.99750E-02 0.00000E+00
 -1       254 6.42500E-02 2.99750E-02 0.00000E+00
 -1       255 6.41042E-02 2.99750E-02 0.00000E+00
 -1       256 6.39583E-02 2.99750E-02 0.00000E+00
 -1       257 6.38125E-02 2.99750E-02 0.00000E+00
 -1       258 6.36666E-02 2.99750E-02 0.00000E+00
 -1       259 6.35208E-02 2.99750E-02 0.00000E+00
 -1       260 6.33750E-02 2.99750E-02 0.00000E+00
 -1       261 6.32292E-02 2.99750E-02 0.00000E+00
 -1       262 6.30833E-02 2.99750E-02 0.00000E+00
 -1       263 6.29375E-02 2.99750E-02 0.00000E+00
 -1       264 6.27916E-02 2.99750E-02 0.00000E+00
 -1       265 6.26458E-02 2.99750E-02 0.00000E+00
 -1       266 6.25000E-02 2.99750E-02 0.00000E+00
 -1       267 6.23541E-02 2.99750E-02 0.00000E+00
 -1       268 6.22083E-02 2.99750E-02 0.00000E+00
 -1       269 6.20625E-02 2.99750E-02 0.00000E+00
 -1       270 6.19166E-02 2.99750E-02 0.00000E+00
 -1       271 6.17708E-02 2.99750E-02 0.00000E+00
 -1       272 6.16250E-02 2.99750E-02 0.00000E+00
 -1       273 6.14791E-02 2.99750E-02 0.00000E+00
 -1       274 6.13333E-02 2.99750E-02 0.00000E+00
 -1       275 6.11875E-02 2.99750E-02 0.00000E+00
 -1       276 6.10416E-02 2.99750E-02 0.00000E+00
 -1       277 6.08958E-02 2.99750E-02 0.00000E+00
 -1       278 6.07500E-02 2.99750E-02 0.00000E+00
 -1       279 6.06041E-02 2.99750E-02 0.00000E+00
 -1       280 6.04583E-02 2.99750E-02 0.00000E+00
 -1       281 6.03125E-02 2.99750E-02 0.00000E+00
 -1       282 6.01666E-02 2.99750E-02 0.00000E+00
 -1       283 6.00208E-02 2.99750E-02 0.00000E+00
 -1       284 5.98750E-02 2.99750E-02 0.00000E+00
 -1       285 5.97291E-02 2.99750E-02 0.00000E+00
 -1       286 5.95833E-02 2.99750E-02 0.00000E+00
 -1       287 5.94375E-02 2.99750E-02 0.00000E+00
 -1       288 5.92916E-02 2.99750E-02 0.00000E+00
 -1       289 5.91458E-02 2.99750E-02 0.00000E+00
 -1       290 5.90000E-02 2.99750E-02 0.00000E+00
 -1       291 5.88541E-02 2.99750E-02 0.00000E+00
 -1       292 5.87083E-02 2.99750E-02 0.00000E+00
 -1       293 5.85625E-02 2.99750E-02 0.00000E+00
 -1       294 5.84166E-02 2.99750E-02 0.00000E+00
 -1       295 5.82708E-02 2.99750E-02 0.00000E+00
 -1       296 5.81250E-02 2.99750E-02 0.00000E+00
 -1       297 5.79791E-02 2.99750E-02 0.00000E+00
 -1       298 5.78333E-02 2.99750E-02 0.00000E+00
 -1       299 5.76875E-02 2.99750E-02 0.00000E+00
 -1       300 5.75416E-02 2.99750E-02 0.00000E+00
 -1       301 5.73958E-02 2.99750E-02 0.00000E+00
 -1       302 5.72499E-02 2.99750E-02 0.00000E+00
 -1       303 5.71041E-02 2.99750E-02 0.00000E+00
 -1       304 5.69583E-02 2.99750E-02 0.00000E+00
 -1       305 5.68124E-02 2.99750E-02 0.00000E+00
 -1       306 5.66666E-02 2.99750E-02 0.00000E+00
 -1       307 5.65208E-02 2.99750E-02 0.00000E+00
 -1       308 5.63749E-02 2.99750E-02 0.00000E+00
 -1       309 5.62291E-02 2.99750E-02 0.00000E+00
 -1       310 5.60833E-02 2.99750E-02 0.00000E+00
 -1       311 5.59374E-02 2.99750E-02 0.00000E+00
 -1       312 5.57916E-02 2.99750E-02 0.00000E+00
 -1       313 5.56458E-02 2.99750E-02 0.00000E+00
 -1       314 5.54999E-02 2.99750E-02 0.00000E+00
 -1       315 5.53541E-02 2.99750E-02 0.00000E+00
 -1       316 5.52083E-02 2.99750E-02 0.00000E+00
 -1       317 5.50624E-02 2.99750E-02 0.00000E+00
 -1       318 5.49166E-02 2.99750E-02 0.00000E+00
 -1       319 5.47708E-02 2.99750E-02 0.00000E+00
 -1       320 5.46249E-02 2.99750E-02 0.00000E+00
 -1       321 5.44791E-02 2.99750E-02 0.00000E+00
 -1       322 5.43333E-02 2.99750E-02 0.00000E+00
 -1       323 5.41874E-02 2.99750E-02 0.00000E+00
 -1       324 5.40416E-02 2.99750E-02 0.00000E+00
 -1       325 5.38958E-02 2.99750E-02 0.00000E+00
 -1       326 5.37499E-02 2.99750E-02 0.00000E+00
 -1       327 5.36041E-02 2.99750E-02 0.00000E+00
 -1       328 5.34583E-02 2.99750E-02 0.00000E+00
 -1       329 5.33124E-02 2.99750E-02 0.00000E+00
 -1       330 5.31666E-02 2.99750E-02 0.00000E+00
 -1       331 5.30208E-02 2.99750E-02 0.00000E+00
 -1       332 5.28749E-02 2.99750E-02 0.00000E+00
 -1       333 5.27291E-02 2.99750E-02 0.00000E+00
 -1       334 5.25833E-02 2.99750E-02 0.00000E+00
 -1       335 5.24374E-02 2.99750E-02 0.00000E+00
 -1       336 5.22916E-02 2.99750E-02 0.00000E+00
 -1       337 5.21457E-02 2.99750E-02 0.00000E+00
 -1       338 5.19999E-02 2.99750E-02 0.00000E+00
 -1       339 5.18541E-02 2.99750E-02 0.00000E+00
 -1       340 5.17082E-02 2.99750E-02 0.00000E+00
 -1       341 5.15624E-02 2.99750E-02 0.00000E+00
 -1       342 5.14166E-02 2.99750E-02 0.00000E+00
 -1       343 5.12707E-02 2.99750E-02 0.00000E+00
 -1       344 5.11249E-02 2.99750E-02 0.00000E+00
 -1       345 5.09791E-02 2.99750E-02 0.00000E+00
 -1       346 5.08332E-02 2.99750E-02 0.00000E+00
 -1       347 5.06874E-02 2.99750E-02 0.00000E+00
 -1       348 5.05416E-02 2.99750E-02 0.00000E+00
 -1       349 5.03957E-02 2.99750E-02 0.00000E+00
 -1       350 5.02499E-02 2.99750E-02 0.00000E+00
 -1       351 5.01041E-02 2.99750E-02 0.00000E+00
 -1       352 4.99582E-02 2.99750E-02 0.00000E+00
 -1       353 4.98124E-02 2.99750E-02 0.00000E+00
 -1       354 4.96666E-02 2.99750E-02 0.00000E+00
 -1       355 4.95207E-02 2.99750E-02 0.00000E+00
 -1       356 4.93749E-02 2.99750E-02 0.00000E+00
 -1       357 4.92291E-02 2.99750E-02 0.00000E+00
 -1       358 4.90832E-02 2.99750E-02 0.00000E+00
 -1       359 4.89374E-02 2.99750E-02 0.00000E+00
 -1       360 4.87916E-02 2.99750E-02 0.00000E+00
 -1       361 4.86457E-02 2.99750E-02 0.00000E+00
 -1       362 4.84999E-02 2.99750E-02 0.00000E+00
 -1       363 4.83541E-02 2.99750E-02 0.00000E+00
 -1       364 4.82082E-02 2.99750E-02 0.00000E+00
 -1       365 4.80624E-02 2.99750E-02 0.00000E+00
 -1       366 4.79166E-02 2.99750E-02 0.00000E+00
 -1       367 4.77707E-02 2.99750E-02 0.00000E+00
 -1       368 4.76249E-02 2.99750E-02 0.00000E+00
 -1       369 4.74791E-02 2.99750E-02 0.00000E+00
 -1       370 4.73332E-02 2.99750E-02 0.00000E+00
 -1       371 4.71874E-02 2.99750E-02 0.00000E+00
 -1       372 4.70416E-02 2.99750E-02 0.00000E+00
 -1       373 4.68957E-02 2.99750E-02 0.00000E+00
 -1       374 4.67499E-02 2.99750E-02 0.00000E+00
 -1       375 4.66040E-02 2.99750E-02 0.00000E+00
 -1       376 4.64582E-02 2.99750E-02 0.00000E+00
 -1       377 4.63124E-02 2.99750E-02 0.00000E+00
 -1       378 4.61665E-02 2.99750E-02 0.00000E+00
 -1       379 4.60207E-02 2.99750E-02 0.00000E+00
 -1       380 4.58749E-02 2.99750E-02 0.00000E+00
 -1       381 4.57290E-02 2.99750E-02 0.00000E+00
 -1       382 4.55832E-02 2.99750E-02 0.00000E+00
 -1       383 4.54374E-02 2.99750E-02 0.00000E+00
 -1       384 4.52915E-02 2.99750E-02 0.00000E+00
 -1       385 4.51457E-02 2.99750E-02 0.00000E+00
 -1       386 4.49999E-02 2.99750E-02 0.00000E+00
 -1       387 4.48540E-02 2.99750E-02 0.00000E+00
 -1       388 4.47082E-02 2.99750E-02 0.00000E+00
 -1       389 4.45624E-02 2.99750E-02 0.00000E+00
 -1       390 4.44165E-02 2.99750E-02 0.00000E+00
 -1       391 4.42707E-02 2.99750E-02 0.00000E+00
 -1       392 4.41249E-02 2.99750E-02 0.00000E+00
 -1       393 4.39790E-02 2.99750E-02 0.00000E+00
 -1       394 4.38332E-02 2.99750E-02 0.00000E+00
 -1       395 4.36874E-02 2.99750E-02 0.00000E+00
 -1       396 4.35415E-02 2.99750E-02 0.00000E+00
 -1       397 4.33957E-02 2.99750E-02 0.00000E+00
 -1       398 4.32499E-02 2.99750E-02 0.00000E+00
 -1       399 4.31040E-02 2.99750E-02 0.00000E+00
 -1       400 4.29582E-02 2.99750E-02 0.00000E+00
 -1       401 4.28124E-02 2.99750E-02 0.00000E+00
 -1       402 4.26665E-02 2.99750E-02 0.00000E+00
 -1       403 4.25207E-02 2.99750E-02 0.00000E+00
 -1       404 4.23749E-02 2.99750E-02 0.00000E+00
 -1       405 4.22290E-02 2.99750E-02 0.00000E+00
 -1       406 4.20832E-02 2.99750E-02 0.00000E+00
 -1       407 4.19374E-02 2.99750E-02 0.00000E+00
 -1       408 4.17915E-02 2.99750E-02 0.00000E+00
 -1       409 4.16457E-02 2.99750E-02 0.00000E+00
 -1       410 4.14999E-02 2.99750E-02 0.00000E+00
 -1       411 4.13540E-02 2.99750E-02 0.00000E+00
 -1       412 4.12082E-02 2.99750E-02 0.00000E+00
 -1       413 4.10624E-02 2.99750E-02 0.00000E+00
 -1       414 4.09165E-02 2.99750E-02 0.00000E+00
 -1       415 4.07707E-02 2.99750E-02 0.00000E+00
 -1       416 4.06248E-02 2.99750E-02 0.00000E+00
 -1       417 4.04790E-02 2.99750E-02 0.00000E+00
 -1       418 4.03332E-02 2.99750E-02 0.00000E+00
 -1       419 4.01873E-02 2.99750E-02 0.00000E+00
 -1       420 4.00415E-02 2.99750E-02 0.00000E+00
 -1       421 3.98957E-02 2.99750E-02 0.00000E+00
 -1       422 3.97498E-02 2.99750E-02 0.00000E+00
 -1       423 3.96040E-02 2.99750E-02 0.00000E+00
 -1       424 3.94582E-02 2.99750E-02 0.00000E+00
 -1       425 3.93123E-02 2.99750E-02 0.00000E+00
 -1       426 3.91665E-02 2.99750E-02 0.00000E+00
 -1       427 3.90207E-02 2.99750E-02 0.00000E+00
 -1       428 3.88748E-02 2.99750E-02 0.00000E+00
 -1       429 3.87290E-02 2.99750E-02 0.00000E+00
 -1       430 3.85832E-02 2.99750E-02 0.00000E+00
 -1       431 3.84373E-02 2.99750E-02 0.00000E+00
 -1       432 3.82915E-02 2.99750E-02 0.00000E+00
 -1       433 3.81457E-02 2.99750E-02 0.00000E+00
 -1       434 3.79998E-02 2.99750E-02 0.00000E+00
 -1       435 3.78540E-02 2.99750E-02 0.00000E+00
 -1       436 3.77082E-02 2.99750E-02 0.00000E+00
 -1       437 3.75623E-02 2.99750E-02 0.00000E+00
 -1       438 3.74165E-02 2.99750E-02 0.00000E+00
 -1       439 3.72707E-02 2.99750E-02 0.00000E+00
 -1       440 3.71248E-02 2.99750E-02 0.00000E+00
 -1       441 3.69790E-02 2.99750E-02 0.00000E+00
 -1       442 3.68332E-02 2.99750E-02 0.00000E+00
 -1       443 3.66873E-02 2.99750E-02 0.00000E+00
 -1       444 3.65415E-02 2.99750E-02 0.00000E+00
 -1       445 3.63957E-02 2.99750E-02 0.00000E+00
 -1       446 3.62498E-02 2.99750E-02 0.00000E+00
 -1       447 3.61040E-02 2.99750E-02 0.00000E+00
 -1       448 3.59582E-02 2.99750E-02 0.00000E+00
 -1       449 3.58123E-02 2.99750E-02 0.00000E+00
 -1       450 3.56665E-02 2.99750E-02 0.00000E+00
 -1       451 3.55207E-02 2.99750E-02 0.00000E+00
 -1       452 3.53748E-02 2.99750E-02 0.00000E+00
 -1       453 3.52290E-02 2.99750E-02 0.00000E+00
 -1       454 3.50831E-02 2.99750E-02 0.00000E+00
 -1       455 3.49373E-02 2.99750E-02 0.00000E+00
 -1       456 3.47915E-02 2.99750E-02 0.00000E+00
 -1       457 3.46456E-02 2.99750E-02 0.00000E+00
 -1       458 3.44998E-02 2.99750E-02 0.00000E+00
 -1       459 3.43540E-02 2.99750E-02 0.00000E+00
 -1       460 3.42081E-02 2.99750E-02 0.00000E+00
 -1       461 3.40623E-02 2.99750E-02 0.00000E+00
 -1       462 3.39165E-02 2.99750E-02 0.00000E+00
 -1       463 3.37706E-02 2.99750E-02 0.00000E+00
 -1       464 3.36248E-02 2.99750E-02 0.00000E+00
 -1       465 3.34790E-02 2.99750E-02 0.00000E+00
 -1       466 3.33331E-02 2.99750E-02 0.00000E+00
 -1       467 3.31873E-02 2.99750E-02 0.00000E+00
 -1       468 3.30415E-02 2.99750E-02 0.00000E+00
 -1       469 3.28956E-02 2.99750E-02 0.00000E+00
 -1       470 3.27498E-02 2.99750E-02 0.00000E+00
 -1       471 3.26040E-02 2.99750E-02 0.00000E+00
 -1       472 3.24581E-02 2.99750E-02 0.00000E+00
 -1       473 3.23123E-02 2.99750E-02 0.00000E+00
 -1       474 3.21665E-02 2.99750E-02 0.00000E+00
 -1       475 3.20206E-02 2.99750E-02 0.00000E+00
 -1       476 3.18748E-02 2.99750E-02 0.00000E+00
 -1       477 3.17290E-02 2.99750E-02 0.00000E+00
 -1       478 3.15831E-02 2.99750E-02 0.00000E+00
 -1       479 3.14373E-02 2.99750E-02 0.00000E+00
 -1       480 3.12915E-02 2.99750E-02 0.00000E+00
 -1       481 3.11456E-02 2.99750E-02 0.00000E+00
 -1       482 3.09998E-02 2.99750E-02 0.00000E+00
 -1       483 6.60000E-02 2.99875E-02 1.60000E-01
 -1       484 6.58542E-02 2.99875E-02 1.60000E-01
 -1       485 6.57083E-02 2.99875E-02 1.60000E-01
 -1       486 6.55625E-02 2.99875E-02 1.60000E-01
 -1       487 6.54167E-02 2.99875E-02 1.60000E-01
 -1       488 6.52708E-02 2.99875E-02 1.60000E-01
 -1       489 6.51250E-02 2.99875E-02 1.60000E-01
 -1       490 6.49792E-02 2.99875E-02 1.60000E-01
 -1       491 6.48333E-02 2.99875E-02 1.60000E-01
 -1       492 6.46875E-02 2.99875E-02 1.60000E-01
 -1       493 6.45417E-02 2.99875E-02 1.60000E-01
 -1       494 6.43958E-02 2.99875E-02 1.60000E-01
 -1       495 6.42500E-02 2.99875E-02 1.60000E-01
 -1       496 6.41042E-02 2.99875E-02 1.60000E-01
 -1       497 6.39583E-02 2.99875E-02 1.60000E-01
 -1       498 6.38125E-02 2.99875E-02 1.60000E-01
 -1       499 6.36667E-02 2.99875E-02 1.60000E-01
 -1       500 6.35208E-02 2.99875E-02 1.60000E-01
 -1       501 6.33750E-02 2.99875E-02 1.60000E-01
 -1       502 6.32292E-02 2.99875E-02 1.60000E-01
 -1       503 6.30833E-02 2.99875E-02 1.60000E-01
 -1       504 6.29375E-02 2.99875E-02 1.60000E-01
 -1       505 6.27917E-02 2.99875E-02 1.60000E-01
 -1       506 6.26458E-02 2.99875E-02 1.60000E-01
 -1       507 6.25000E-02 2.99875E-02 1.60000E-01
 -1       508 6.23542E-02 2.99875E-02 1.60000E-01
 -1       509 6.22083E-02 2.99875E-02 1.60000E-01
 -1       510 6.20625E-02 2.99875E-02 1.60000E-01
 -1       511 6.19167E-02 2.99875E-02 1.60000E-01
 -1       512 6.17708E-02 2.99875E-02 1.60000E-01
 -1       513 6.16250E-02 2.99875E-02 1.60000E-01
 -1       514 6.14792E-02 2.99875E-02 1.60000E-01
 -1       515 6.13333E-02 2.99875E-02 1.60000E-01
 -1       516 6.11875E-02 2.99875E-02 1.60000E-01
 -1       517 6.10417E-02 2.99875E-02 1.60000E-01
 -1       518 6.08958E-02 2.99875E-02 1.60000E-01
 -1       519 6.07500E-02 2.99875E-02 1.60000E-01
 -1       520 6.06042E-02 2.99875E-02 1.60000E-01
 -1       521 6.04583E-02 2.99875E-02 1.60000E-01
 -1       522 6.03125E-02 2.99875E-02 1.60000E-01
 -1       523 6.01667E-02 2.99875E-02 1.60000E-01
 -1       524 6.00208E-02 2.99875E-02 1.60000E-01
 -1       525 5.98750E-02 2.99875E-02 1.60000E-01
 -1       526 5.97292E-02 2.99875E-02 1.60000E-01
 -1       527 5.95833E-02 2.99875E-02 1.60000E-01
 -1       528 5.94375E-02 2.99875E-02 1.60000E-01
 -1       529 5.92917E-02 2.99875E-02 1.60000E-01
 -1       530 5.91458E-02 2.99875E-02 1.60000E-01
 -1       531 5.90000E-02 2.99875E-02 1.60000E-01
 -1       532 5.88542E-02 2.99875E-02 1.60000E-01
 -1       533 5.87083E-02 2.99875E-02 1.60000E-01
 -1       534 5.85625E-02 2.99875E-02 1.60000E-01
 -1       535 5.84167E-02 2.99875E-02 1.60000E-01
 -1       536 5.82708E-02 2.99875E-02 1.60000E-01
 -1       537 5.81250E-02 2.99875E-02 1.60000E-01
 -1       538 5.79792E-02 2.99875E-02 1.60000E-01
 -1       539 5.78333E-02 2.99875E-02 1.60000E-01
 -1       540 5.76875E-02 2.99875E-02 1.60000E-01
 -1       541 5.75417E-02 2.99875E-02 1.60000E-01
 -1       542 5.73958E-02 2.99875E-02 1.60000E-01
 -1       543 5.72500E-02 2.99875E-02 1.60000E-01
 -1       544 5.71042E-02 2.99875E-02 1.60000E-01
 -1       545 5.69583E-02 2.99875E-02 1.60000E-01
 -1       546 5.68125E-02 2.99875E-02 1.60000E-01
 -1       547 5.66667E-02 2.99875E-02 1.60000E-01
 -1       548 5.65208E-02 2.99875E-02 1.60000E-01
 -1       549 5.63750E-02 2.99875E-02 1.60000E-01
 -1       550 5.62292E-02 2.99875E-02 1.60000E-01
 -1       551 5.60833E-02 2.99875E-02 1.60000E-01
 -1       552 5.59375E-02 2.99875E-02 1.60000E-01
 -1       553 5.57917E-02 2.99875E-02 1.60000E-01
 -1       554 5.56458E-02 2.99875E-02 1.60000E-01
 -1       555 5.55000E-02 2.99875E-02 1.60000E-01
 -1       556 5.53542E-02 2.99875E-02 1.60000E-01
 -1       557 5.52083E-02 2.99875E-02 1.60000E-01
 -1       558 5.50625E-02 2.99875E-02 1.60000E-01
 -1       559 5.49167E-02 2.99875E-02 1.60000E-01
 -1       560 5.47708E-02 2.99875E-02 1.60000E-01
 -1       561 5.46250E-02 2.99875E-02 1.60000E-01
 -1       562 5.44792E-02 2.99875E-02 1.60000E-01
 -1       563 5.43333E-02 2.99875E-02 1.60000E-01
 -1       564 5.41875E-02 2.99875E-02 1.60000E-01
 -1       565 5.40417E-02 2.99875E-02 1.60000E-01
 -1       566 5.38958E-02 2.99875E-02 1.60000E-01
 -1       567 5.37500E-02 2.99875E-02 1.60000E-01
 -1       568 5.36042E-02 2.99875E-02 1.60000E-01
 -1       569 5.34583E-02 2.99875E-02 1.60000E-01
 -1       570 5.33125E-02 2.99875E-02 1.60000E-01
 -1       571 5.31667E-02 2.99875E-02 1.60000E-01
 -1       572 5.30208E-02 2.99875E-02 1.60000E-01
 -1       573 5.28750E-02 2.99875E-02 1.60000E-01
 -1       574 5.27292E-02 2.99875E-02 1.60000E-01
 -1       575 5.25833E-02 2.99875E-02 1.60000E-01
 -1       576 5.24375E-02 2.99875E-02 1.60000E-01
 -1       577 5.22917E-02 2.99875E-02 1.60000E-01
 -1       578 5.21458E-02 2.99875E-02 1.60000E-01
 -1       579 5.20000E-02 2.99875E-02 1.60000E-01
 -1       580 5.18542E-02 2.99875E-02 1.60000E-01
 -1       581 5.17083E-02 2.99875E-02 1.60000E-01
 -1       582 5.15625E-02 2.99875E-02 1.60000E-01
 -1       583 5.14167E-02 2.99875E-02 1.60000E-01