    1C
    1UUSER                                                              
    1UDATE              06.may.2022                                     
    1UTIME              17:43:36                                        
    1UHOST                                                              
    1UPGM               CalculiX                                        
    1UVERSION           Version 2.16                             
    1UCOMPILETIME       Tue 20 Jul 2021 11:34:44 AM CDT                    
    1UDIR                                                               
    1UDBN                                                               
    1UMAT    1ACETATO                                                   
    2C                           726                                     1
 -1         2 6.57083E-02 2.99750E-02 1.60000E-01
 -1         3 6.54167E-02 2.99750E-02 1.60000E-01
 -1         4 6.51250E-02 2.99750E-02 1.60000E-01
 -1         5 6.48333E-02 2.99750E-02 1.60000E-01
 -1         6 6.45417E-02 2.99750E-02 1.60000E-01
 -1         7 6.42500E-02 2.99750E-02 1.60000E-01
 -1         8 6.39583E-02 2.99750E-02 1.60000E-01
 -1         9 6.36666E-02 2.99750E-02 1.60000E-01
 -1        10 6.33750E-02 2.99750E-02 1.60000E-01
 -1        11 6.30833E-02 2.99750E-02 1.60000E-01
 -1        12 6.27916E-02 2.99750E-02 1.60000E-01
 -1        13 6.25000E-02 2.99750E-02 1.60000E-01
 -1        14 6.22083E-02 2.99750E-02 1.60000E-01
 -1        15 6.19166E-02 2.99750E-02 1.60000E-01
 -1        16 6.16250E-02 2.99750E-02 1.60000E-01
 -1        17 6.13333E-02 2.99750E-02 1.60000E-01
 -1        18 6.10416E-02 2.99750E-02 1.60000E-01
 -1        19 6.07500E-02 2.99750E-02 1.60000E-01
 -1        20 6.04583E-02 2.99750E-02 1.60000E-01
 -1        21 6.01666E-02 2.99750E-02 1.60000E-01
 -1        22 5.98750E-02 2.99750E-02 1.60000E-01
 -1        23 5.95833E-02 2.99750E-02 1.60000E-01
 -1        24 5.92916E-02 2.99750E-02 1.60000E-01
 -1        25 5.90000E-02 2.99750E-02 1.60000E-01
 -1        26 5.87083E-02 2.99750E-02 1.60000E-01
 -1        27 5.84166E-02 2.99750E-02 1.60000E-01
 -1        28 5.81250E-02 2.99750E-02 1.60000E-01
 -1        29 5.78333E-02 2.99750E-02 1.60000E-01
 -1        30 5.75416E-02 2.99750E-02 1.60000E-01
 -1        31 5.72499E-02 2.99750E-02 1.60000E-01
 -1        32 5.69583E-02 2.99750E-02 1.60000E-01
 -1        33 5.66666E-02 2.99750E-02 1.60000E-01
 -1        34 5.63749E-02 2.99750E-02 1.60000E-01
 -1        35 5.60833E-02 2.99750E-02 1.60000E-01
 -1        36 5.57916E-02 2.99750E-02 1.60000E-01
 -1        37 5.54999E-02 2.99750E-02 1.60000E-01
 -1        38 5.52083E-02 2.99750E-02 1.60000E-01
 -1        39 5.49166E-02 2.99750E-02 1.60000E-01
 -1        40 5.46249E-02 2.99750E-02 1.60000E-01
 -1        41 5.43333E-02 2.99750E-02 1.60000E-01
 -1        42 5.40416E-02 2.99750E-02 1.60000E-01
 -1        43 5.37499E-02 2.99750E-02 1.60000E-01
 -1        44 5.34583E-02 2.99750E-02 1.60000E-01
 -1        45 5.31666E-02 2.99750E-02 1.60000E-01
 -1        46 5.28749E-02 2.99750E-02 1.60000E-01
 -1        47 5.25833E-02 2.99750E-02 1.60000E-01
 -1        48 5.22916E-02 2.99750E-02 1.60000E-01
 -1        49 5.19999E-02 2.99750E-02 1.60000E-01
 -1        50 5.17082E-02 2.99750E-02 1.60000E-01
 -1        51 5.14166E-02 2.99750E-02 1.60000E-01
 -1        52 5.11249E-02 2.99750E-02 1.60000E-01
 -1        53 5.08332E-02 2.99750E-02 1.60000E-01
 -1        54 5.05416E-02 2.99750E-02 1.60000E-01
 -1        55 5.02499E-02 2.99750E-02 1.60000E-01
 -1        56 4.99582E-02 2.99750E-02 1.60000E-01
 -1        57 4.96666E-02 2.99750E-02 1.60000E-01
 -1        58 4.93749E-02 2.99750E-02 1.60000E-01
 -1        59 4.90832E-02 2.99750E-02 1.60000E-01
 -1        60 4.87916E-02 2.99750E-02 1.60000E-01
 -1        61 4.84999E-02 2.99750E-02 1.60000E-01
 -1        62 4.82082E-02 2.99750E-02 1.60000E-01
 -1        63 4.79166E-02 2.99750E-02 1.60000E-01
 -1        64 4.76249E-02 2.99750E-02 1.60000E-01
 -1        65 4.73332E-02 2.99750E-02 1.60000E-01
 -1        66 4.70416E-02 2.99750E-02 1.60000E-01
 -1        67 4.67499E-02 2.99750E-02 1.60000E-01
 -1        68 4.64582E-02 2.99750E-02 1.60000E-01
 -1        69 4.61665E-02 2.99750E-02 1.60000E-01
 -1        70 4.58749E-02 2.99750E-02 1.60000E-01
 -1        71 4.55832E-02 2.99750E-02 1.60000E-01
 -1        72 4.52915E-02 2.99750E-02 1.60000E-01
 -1        73 4.49999E-02 2.99750E-02 1.60000E-01
 -1        74 4.47082E-02 2.99750E-02 1.60000E-01
 -1        75 4.44165E-02 2.99750E-02 1.60000E-01
 -1        76 4.41249E-02 2.99750E-02 1.60000E-01
 -1        77 4.38332E-02 2.99750E-02 1.60000E-01
 -1        78 4.35415E-02 2.99750E-02 1.60000E-01
 -1        79 4.32499E-02 2.99750E-02 1.60000E-01
 -1        80 4.29582E-02 2.99750E-02 1.60000E-01
 -1        81 4.26665E-02 2.99750E-02 1.60000E-01
 -1        82 4.23749E-02 2.99750E-02 1.60000E-01
 -1        83 4.20832E-02 2.99750E-02 1.60000E-01
 -1        84 4.17915E-02 2.99750E-02 1.60000E-01
 -1        85 4.14999E-02 2.99750E-02 1.60000E-01
 -1        86 4.12082E-02 2.99750E-02 1.60000E-01
 -1        87 4.09165E-02 2.99750E-02 1.60000E-01
 -1        88 4.06248E-02 2.99750E-02 1.60000E-01
 -1        89 4.03332E-02 2.99750E-02 1.60000E-01
 -1        90 4.00415E-02 2.99750E-02 1.60000E-01
 -1        91 3.97498E-02 2.99750E-02 1.60000E-01
 -1        92 3.94582E-02 2.99750E-02 1.60000E-01
 -1        93 3.91665E-02 2.99750E-02 1.60000E-01
 -1        94 3.88748E-02 2.99750E-02 1.60000E-01
 -1        95 3.85832E-02 2.99750E-02 1.60000E-01
 -1        96 3.82915E-02 2.99750E-02 1.60000E-01
 -1        97 3.79998E-02 2.99750E-02 1.60000E-01
 -1        98 3.77082E-02 2.99750E-02 1.60000E-01
 -1        99 3.74165E-02 2.99750E-02 1.60000E-01
 -1       100 3.71248E-02 2.99750E-02 1.60000E-01
 -1       101 3.68332E-02 2.99750E-02 1.60000E-01
 -1       102 3.65415E-02 2.99750E-02 1.60000E-01
 -1       103 3.62498E-02 2.99750E-02 1.60000E-01
 -1       104 3.59582E-02 2.99750E-02 1.60000E-01
 -1       105 3.56665E-02 2.99750E-02 1.60000E-01
 -1       106 3.53748E-02 2.99750E-02 1.60000E-01
 -1       107 3.50831E-02 2.99750E-02 1.60000E-01
 -1       108 3.47915E-02 2.99750E-02 1.60000E-01
 -1       109 3.44998E-02 2.99750E-02 1.60000E-01
 -1       110 3.42081E-02 2.99750E-02 1.60000E-01
 -1       111 3.39165E-02 2.99750E-02 1.60000E-01
 -1       112 3.36248E-02 2.99750E-02 1.60000E-01
 -1       113 3.33331E-02 2.99750E-02 1.60000E-01
 -1       114 3.30415E-02 2.99750E-02 1.60000E-01
 -1       115 3.27498E-02 2.99750E-02 1.60000E-01
 -1       116 3.24581E-02 2.99750E-02 1.60000E-01
 -1       117 3.21665E-02 2.99750E-02 1.60000E-01
 -1       118 3.18748E-02 2.99750E-02 1.60000E-01
 -1       119 3.15831E-02 2.99750E-02 1.60000E-01
 -1       120 3.12915E-02 2.99750E-02 1.60000E-01
 -1       121 3.09998E-02 2.99750E-02 1.60000E-01
 -1       122 6.60000E-02 2.99750E-02 0.00000E+00
 -1       123 6.57083E-02 2.99750E-02 0.00000E+00
 -1       124 6.54167E-02 2.99750E-02 0.00000E+00
 -1       125 6.51250E-02 2.99750E-02 0.00000E+00
 -1       126 6.48333E-02 2.99750E-02 0.00000E+00
 -1       127 6.45417E-02 2.99750E-02 0.00000E+00
 -1       128 6.42500E-02 2.99750E-02 0.00000E+00
 -1       129 6.39583E-02 2.99750E-02 0.00000E+00
 -1       130 6.36666E-02 2.99750E-02 0.00000E+00
 -1       131 6.33750E-02 2.99750E-02 0.00000E+00
 -1       132 6.30833E-02 2.99750E-02 0.00000E+00
 -1       133 6.27916E-02 2.99750E-02 0.00000E+00
 -1       134 6.25000E-02 2.99750E-02 0.00000E+00
 -1       135 6.22083E-02 2.99750E-02 0.00000E+00
 -1       136 6.19166E-02 2.99750E-02 0.00000E+00
 -1       137 6.16250E-02 2.99750E-02 0.00000E+00
 -1       138 6.13333E-02 2.99750E-02 0.00000E+00
 -1       139 6.10416E-02 2.99750E-02 0.00000E+00
 -1       140 6.07500E-02 2.99750E-02 0.00000E+00
 -1       141 6.04583E-02 2.99750E-02 0.00000E+00
 -1       142 6.01666E-02 2.99750E-02 0.00000E+00
 -1       143 5.98750E-02 2.99750E-02 0.00000E+00
 -1       144 5.95833E-02 2.99750E-02 0.00000E+00
 -1       145 5.92916E-02 2.99750E-02 0.00000E+00
 -1       146 5.90000E-02 2.99750E-02 0.00000E+00
 -1       147 5.87083E-02 2.99750E-02 0.00000E+00
 -1       148 5.84166E-02 2.99750E-02 0.00000E+00
 -1       149 5.81250E-02 2.99750E-02 0.00000E+00
 -1       150 5.78333E-02 2.99750E-02 0.00000E+00
 -1       151 5.75416E-02 2.99750E-02 0.00000E+00
 -1       152 5.72499E-02 2.99750E-02 0.00000E+00
 -1       153 5.69583E-02 2.99750E-02 0.00000E+00
 -1       154 5.66666E-02 2.99750E-02 0.00000E+00
 -1       155 5.63749E-02 2.99750E-02 0.00000E+00
 -1       156 5.60833E-02 2.99750E-02 0.00000E+00
 -1       157 5.57916E-02 2.99750E-02 0.00000E+00
 -1       158 5.54999E-02 2.99750E-02 0.00000E+00
 -1       159 5.52083E-02 2.99750E-02 0.00000E+00
 -1       160 5.49166E-02 2.99750E-02 0.00000E+00
 -1       161 5.46249E-02 2.99750E-02 0.00000E+00
 -1       162 5.43333E-02 2.99750E-02 0.00000E+00
 -1       163 5.40416E-02 2.99750E-02 0.00000E+00
 -1       164 5.37499E-02 2.99750E-02 0.00000E+00
 -1       165 5.34583E-02 2.99750E-02 0.00000E+00
 -1       166 5.31666E-02 2.99750E-02 0.00000E+00
 -1       167 5.28749E-02 2.99750E-02 0.00000E+00
 -1       168 5.25833E-02 2.99750E-02 0.00000E+00
 -1       169 5.22916E-02 2.99750E-02 0.00000E+00
 -1       170 5.19999E-02 2.99750E-02 0.00000E+00
 -1       171 5.17082E-02 2.99750E-02 0.00000E+00
 -1       172 5.14166E-02 2.99750E-02 0.00000E+00
 -1       173 5.11249E-02 2.99750E-02 0.00000E+00
 -1       174 5.08332E-02 2.99750E-02 0.00000E+00
 -1       175 5.05416E-02 2.99750E-02 0.00000E+00
 -1       176 5.02499E-02 2.99750E-02 0.00000E+00
 -1       177 4.99582E-02 2.99750E-02 0.00000E+00
 -1       178 4.96666E-02 2.99750E-02 0.00000E+00
 -1       179 4.93749E-02 2.99750E-02 0.00000E+00
 -1       180 4.90832E-02 2.99750E-02 0.00000E+00
 -1       181 4.87916E-02 2.99750E-02 0.00000E+00
 -1       182 4.84999E-02 2.99750E-02 0.00000E+00
 -1       183 4.82082E-02 2.99750E-02 0.00000E+00
 -1       184 4.79166E-02 2.99750E-02 0.00000E+00
 -1       185 4.76249E-02 2.99750E-02 0.00000E+00
 -1       186 4.73332E-02 2.99750E-02 0.00000E+00
 -1       187 4.70416E-02 2.99750E-02 0.00000E+00
 -1       188 4.67499E-02 2.99750E-02 0.00000E+00
 -1       189 4.64582E-02 2.99750E-02 0.00000E+00
 -1       190 4.61665E-02 2.99750E-02 0.00000E+00
 -1       191 4.58749E-02 2.99750E-02 0.00000E+00
 -1       192 4.55832E-02 2.99750E-02 0.00000E+00
 -1       193 4.52915E-02 2.99750E-02 0.00000E+00
 -1       194 4.49999E-02 2.99750E-02 0.00000E+00
 -1       195 4.47082E-02 2.99750E-02 0.00000E+00
 -1       196 4.44165E-02 2.99750E-02 0.00000E+00
 -1       197 4.41249E-02 2.99750E-02 0.00000E+00
 -1       198 4.38332E-02 2.99750E-02 0.00000E+00
 -1       199 4.35415E-02 2.99750E-02 0.00000E+00
 -1       200 4.32499E-02 2.99750E-02 0.00000E+00
 -1       201 4.29582E-02 2.99750E-02 0.00000E+00
 -1       202 4.26665E-02 2.99750E-02 0.00000E+00
 -1       203 4.23749E-02 2.99750E-02 0.00000E+00
 -1       204 4.20832E-02 2.99750E-02 0.00000E+00
 -1       205 4.17915E-02 2.99750E-02 0.00000E+00
 -1       206 4.14999E-02 2.99750E-02 0.00000E+00
 -1       207 4.12082E-02 2.99750E-02 0.00000E+00
 -1       208 4.09165E-02 2.99750E-02 0.00000E+00
 -1       209 4.06248E-02 2.99750E-02 0.00000E+00
 -1       210 4.03332E-02 2.99750E-02 0.00000E+00
 -1       211 4.00415E-02 2.99750E-02 0.00000E+00
 -1       212 3.97498E-02 2.99750E-02 0.00000E+00
 -1       213 3.94582E-02 2.99750E-02 0.00000E+00
 -1       214 3.91665E-02 2.99750E-02 0.00000E+00
 -1       215 3.88748E-02 2.99750E-02 0.00000E+00
 -1       216 3.85832E-02 2.99750E-02 0.00000E+00
 -1       217 3.82915E-02 2.99750E-02 0.00000E+00
 -1       218 3.79998E-02 2.99750E-02 0.00000E+00
 -1       219 3.77082E-02 2.99750E-02 0.00000E+00
 -1       220 3.74165E-02 2.99750E-02 0.00000E+00
 -1       221 3.71248E-02 2.99750E-02 0.00000E+00
 -1       222 3.68332E-02 2.99750E-02 0.00000E+00
 -1       223 3.65415E-02 2.99750E-02 0.00000E+00
 -1       224 3.62498E-02 2.99750E-02 0.00000E+00
 -1       225 3.59582E-02 2.99750E-02 0.00000E+00
 -1       226 3.56665E-02 2.99750E-02 0.00000E+00
 -1       227 3.53748E-02 2.99750E-02 0.00000E+00
 -1       228 3.50831E-02 2.99750E-02 0.00000E+00
 -1       229 3.47915E-02 2.99750E-02 0.00000E+00
 -1       230 3.44998E-02 2.99750E-02 0.00000E+00
 -1       231 3.42081E-02 2.99750E-02 0.00000E+00
 -1       232 3.39165E-02 2.99750E-02 0.00000E+00
 -1       233 3.36248E-02 2.99750E-02 0.00000E+00
 -1       234 3.33331E-02 2.99750E-02 0.00000E+00
 -1       235 3.30415E-02 2.99750E-02 0.00000E+00
 -1       236 3.27498E-02 2.99750E-02 0.00000E+00
 -1       237 3.24581E-02 2.99750E-02 0.00000E+00
 -1       238 3.21665E-02 2.99750E-02 0.00000E+00
 -1       239 3.18748E-02 2.99750E-02 0.00000E+00
 -1       240 3.15831E-02 2.99750E-02 0.00000E+00
 -1       241 3.12915E-02 2.99750E-02 0.00000E+00
 -1       242 3.09998E-02 2.99750E-02 0.00000E+00
 -1       243 6.60000E-02 3.00000E-02 1.60000E-01
 -1       244 6.57083E-02 3.00000E-02 1.60000E-01
 -1       245 6.54167E-02 3.00000E-02 1.60000E-01
 -1       246 6.51250E-02 3.00000E-02 1.60000E-01
 -1       247 6.48333E-02 3.00000E-02 1.60000E-01
 -1       248 6.45417E-02 3.00000E-02 1.60000E-01
 -1       249 6.42500E-02 3.00000E-02 1.60000E-01
 -1       250 6.39583E-02 3.00000E-02 1.60000E-01
 -1       251 6.36667E-02 3.00000E-02 1.60000E-01
 -1       252 6.33750E-02 3.00000E-02 1.60000E-01
 -1       253 6.30833E-02 3.00000E-02 1.60000E-01
 -1       254 6.27917E-02 3.00000E-02 1.60000E-01
 -1       255 6.25000E-02 3.00000E-02 1.60000E-01
 -1       256 6.22083E-02 3.00000E-02 1.60000E-01
 -1       257 6.19167E-02 3.00000E-02 1.60000E-01
 -1       258 6.16250E-02 3.00000E-02 1.60000E-01
 -1       259 6.13333E-02 3.00000E-02 1.60000E-01
 -1       260 6.10417E-02 3.00000E-02 1.60000E-01
 -1       261 6.07500E-02 3.00000E-02 1.60000E-01
 -1       262 6.04584E-02 3.00000E-02 1.60000E-01
 -1       263 6.01667E-02 3.00000E-02 1.60000E-01
 -1       264 5.98750E-02 3.00000E-02 1.60000E-01
 -1       265 5.95834E-02 3.00000E-02 1.60000E-01
 -1       266 5.92917E-02 3.00000E-02 1.60000E-01
 -1       267 5.90000E-02 3.00000E-02 1.60000E-01
 -1       268 5.87084E-02 3.00000E-02 1.60000E-01
 -1       269 5.84167E-02 3.00000E-02 1.60000E-01
 -1       270 5.81250E-02 3.00000E-02 1.60000E-01
 -1       271 5.78334E-02 3.00000E-02 1.60000E-01
 -1       272 5.75417E-02 3.00000E-02 1.60000E-01
 -1       273 5.72500E-02 3.00000E-02 1.60000E-01
 -1       274 5.69584E-02 3.00000E-02 1.60000E-01
 -1       275 5.66667E-02 3.00000E-02 1.60000E-01
 -1       276 5.63750E-02 3.00000E-02 1.60000E-01
 -1       277 5.60834E-02 3.00000E-02 1.60000E-01
 -1       278 5.57917E-02 3.00000E-02 1.60000E-01
 -1       279 5.55000E-02 3.00000E-02 1.60000E-01
 -1       280 5.52084E-02 3.00000E-02 1.60000E-01
 -1       281 5.49167E-02 3.00000E-02 1.60000E-01
 -1       282 5.46250E-02 3.00000E-02 1.60000E-01
 -1       283 5.43334E-02 3.00000E-02 1.60000E-01
 -1       284 5.40417E-02 3.00000E-02 1.60000E-01
 -1       285 5.37500E-02 3.00000E-02 1.60000E-01
 -1       286 5.34584E-02 3.00000E-02 1.60000E-01
 -1       287 5.31667E-02 3.00000E-02 1.60000E-01
 -1       288 5.28750E-02 3.00000E-02 1.60000E-01
 -1       289 5.25834E-02 3.00000E-02 1.60000E-01
 -1       290 5.22917E-02 3.00000E-02 1.60000E-01
 -1       291 5.20000E-02 3.00000E-02 1.60000E-01
 -1       292 5.17084E-02 3.00000E-02 1.60000E-01
 -1       293 5.14167E-02 3.00000E-02 1.60000E-01
 -1       294 5.11250E-02 3.00000E-02 1.60000E-01
 -1       295 5.08334E-02 3.00000E-02 1.60000E-01
 -1       296 5.05417E-02 3.00000E-02 1.60000E-01
 -1       297 5.02500E-02 3.00000E-02 1.60000E-01
 -1       298 4.99584E-02 3.00000E-02 1.60000E-01
 -1       299 4.96667E-02 3.00000E-02 1.60000E-01
 -1       300 4.93750E-02 3.00000E-02 1.60000E-01
 -1       301 4.90834E-02 3.00000E-02 1.60000E-01
 -1       302 4.87917E-02 3.00000E-02 1.60000E-01
 -1       303 4.85000E-02 3.00000E-02 1.60000E-01
 -1       304 4.82084E-02 3.00000E-02 1.60000E-01
 -1       305 4.79167E-02 3.00000E-02 1.60000E-01
 -1       306 4.76251E-02 3.00000E-02 1.60000E-01
 -1       307 4.73334E-02 3.00000E-02 1.60000E-01
 -1       308 4.70417E-02 3.00000E-02 1.60000E-01
 -1       309 4.67501E-02 3.00000E-02 1.60000E-01
 -1       310 4.64584E-02 3.00000E-02 1.60000E-01
 -1       311 4.61667E-02 3.00000E-02 1.60000E-01
 -1       312 4.58751E-02 3.00000E-02 1.60000E-01
 -1       313 4.55834E-02 3.00000E-02 1.60000E-01
 -1       314 4.52917E-02 3.00000E-02 1.60000E-01
 -1       315 4.50001E-02 3.00000E-02 1.60000E-01
 -1       316 4.47084E-02 3.00000E-02 1.60000E-01
 -1       317 4.44167E-02 3.00000E-02 1.60000E-01
 -1       318 4.41251E-02 3.00000E-02 1.60000E-01
 -1       319 4.38334E-02 3.00000E-02 1.60000E-01
 -1       320 4.35417E-02 3.00000E-02 1.60000E-01
 -1       321 4.32501E-02 3.00000E-02 1.60000E-01
 -1       322 4.29584E-02 3.00000E-02 1.60000E-01
 -1       323 4.26667E-02 3.00000E-02 1.60000E-01
 -1       324 4.23751E-02 3.00000E-02 1.60000E-01
 -1       325 4.20834E-02 3.00000E-02 1.60000E-01
 -1       326 4.17917E-02 3.00000E-02 1.60000E-01
 -1       327 4.15001E-02 3.00000E-02 1.60000E-01
 -1       328 4.12084E-02 3.00000E-02 1.60000E-01
 -1       329 4.09167E-02 3.00000E-02 1.60000E-01
 -1       330 4.06251E-02 3.00000E-02 1.60000E-01
 -1       331 4.03334E-02 3.00000E-02 1.60000E-01
 -1       332 4.00417E-02 3.00000E-02 1.60000E-01
 -1       333 3.97501E-02 3.00000E-02 1.60000E-01
 -1       334 3.94584E-02 3.00000E-02 1.60000E-01
 -1       335 3.91667E-02 3.00000E-02 1.60000E-01
 -1       336 3.88751E-02 3.00000E-02 1.60000E-01
 -1       337 3.85834E-02 3.00000E-02 1.60000E-01
 -1       338 3.82917E-02 3.00000E-02 1.60000E-01
 -1       339 3.80001E-02 3.00000E-02 1.60000E-01
 -1       340 3.77084E-02 3.00000E-02 1.60000E-01
 -1       341 3.74167E-02 3.00000E-02 1.60000E-01
 -1       342 3.71251E-02 3.00000E-02 1.60000E-01
 -1       343 3.68334E-02 3.00000E-02 1.60000E-01
 -1       344 3.65418E-02 3.00000E-02 1.60000E-01
 -1       345 3.62501E-02 3.00000E-02 1.60000E-01
 -1       346 3.59584E-02 3.00000E-02 1.60000E-01
 -1       347 3.56668E-02 3.00000E-02 1.60000E-01
 -1       348 3.53751E-02 3.00000E-02 1.60000E-01
 -1       349 3.50834E-02 3.00000E-02 1.60000E-01
 -1       350 3.47918E-02 3.00000E-02 1.60000E-01
 -1       351 3.45001E-02 3.00000E-02 1.60000E-01
 -1       352 3.42084E-02 3.00000E-02 1.60000E-01
 -1       353 3.39168E-02 3.00000E-02 1.60000E-01
 -1       354 3.36251E-02 3.00000E-02 1.60000E-01
 -1       355 3.33334E-02 3.00000E-02 1.60000E-01
 -1       356 3.30418E-02 3.00000E-02 1.60000E-01
 -1       357 3.27501E-02 3.00000E-02 1.60000E-01
 -1       358 3.24584E-02 3.00000E-02 1.60000E-01
 -1       359 3.21668E-02 3.00000E-02 1.60000E-01
 -1       360 3.18751E-02 3.00000E-02 1.60000E-01
 -1       361 3.15834E-02 3.00000E-02 1.60000E-01
 -1       362 3.12918E-02 3.00000E-02 1.60000E-01
 -1       363 3.10001E-02 3.00000E-02 1.60000E-01
 -1       364 6.60000E-02 3.00000E-02 0.00000E+00
 -1       365 6.57083E-02 3.00000E-02 0.00000E+00
 -1       366 6.54167E-02 3.00000E-02 0.00000E+00
 -1       367 6.51250E-02 3.00000E-02 0.00000E+00
 -1       368 6.48333E-02 3.00000E-02 0.00000E+00
 -1       369 6.45417E-02 3.00000E-02 0.00000E+00
 -1       370 6.42500E-02 3.00000E-02 0.00000E+00
 -1       371 6.39583E-02 3.00000E-02 0.00000E+00
 -1       372 6.36667E-02 3.00000E-02 0.00000E+00
 -1       373 6.33750E-02 3.00000E-02 0.00000E+00
 -1       374 6.30833E-02 3.00000E-02 0.00000E+00
 -1       375 6.27917E-02 3.00000E-02 0.00000E+00
 -1       376 6.25000E-02 3.00000E-02 0.00000E+00
 -1       377 6.22083E-02 3.00000E-02 0.00000E+00
 -1       378 6.19167E-02 3.00000E-02 0.00000E+00
 -1       379 6.16250E-02 3.00000E-02 0.00000E+00
 -1       380 6.13333E-02 3.00000E-02 0.00000E+00
 -1       381 6.10417E-02 3.00000E-02 0.00000E+00
 -1       382 6.07500E-02 3.00000E-02 0.00000E+00
 -1       383 6.04584E-02 3.00000E-02 0.00000E+00
 -1       384 6.01667E-02 3.00000E-02 0.00000E+00
 -1       385 5.98750E-02 3.00000E-02 0.00000E+00
 -1       386 5.95834E-02 3.00000E-02 0.00000E+00
 -1       387 5.92917E-02 3.00000E-02 0.00000E+00
 -1       388 5.90000E-02 3.00000E-02 0.00000E+00
 -1       389 5.87084E-02 3.00000E-02 0.00000E+00
 -1       390 5.84167E-02 3.00000E-02 0.00000E+00
 -1       391 5.81250E-02 3.00000E-02 0.00000E+00
 -1       392 5.78334E-02 3.00000E-02 0.00000E+00
 -1       393 5.75417E-02 3.00000E-02 0.00000E+00
 -1       394 5.72500E-02 3.00000E-02 0.00000E+00
 -1       395 5.69584E-02 3.00000E-02 0.00000E+00
 -1       396 5.66667E-02 3.00000E-02 0.00000E+00
 -1       397 5.63750E-02 3.00000E-02 0.00000E+00
 -1       398 5.60834E-02 3.00000E-02 0.00000E+00
 -1       399 5.57917E-02 3.00000E-02 0.00000E+00
 -1       400 5.55000E-02 3.00000E-02 0.00000E+00
 -1       401 5.52084E-02 3.00000E-02 0.00000E+00
 -1       402 5.49167E-02 3.00000E-02 0.00000E+00
 -1       403 5.46250E-02 3.00000E-02 0.00000E+00
 -1       404 5.43334E-02 3.00000E-02 0.00000E+00
 -1       405 5.40417E-02 3.00000E-02 0.00000E+00
 -1       406 5.37500E-02 3.00000E-02 0.00000E+00
 -1       407 5.34584E-02 3.00000E-02 0.00000E+00
 -1       408 5.31667E-02 3.00000E-02 0.00000E+00
 -1       409 5.28750E-02 3.00000E-02 0.00000E+00
 -1       410 5.25834E-02 3.00000E-02 0.00000E+00
 -1       411 5.22917E-02 3.00000E-02 0.00000E+00
 -1       412 5.20000E-02 3.00000E-02 0.00000E+00
 -1       413 5.17084E-02 3.00000E-02 0.00000E+00
 -1       414 5.14167E-02 3.00000E-02 0.00000E+00
 -1       415 5.11250E-02 3.00000E-02 0.00000E+00
 -1       416 5.08334E-02 3.00000E-02 0.00000E+00
 -1       417 5.05417E-02 3.00000E-02 0.00000E+00
 -1       418 5.02500E-02 3.00000E-02 0.00000E+00
 -1       419 4.99584E-02 3.00000E-02 0.00000E+00
 -1       420 4.96667E-02 3.00000E-02 0.00000E+00
 -1       421 4.93750E-02 3.00000E-02 0.00000E+00
 -1       422 4.90834E-02 3.00000E-02 0.00000E+00
 -1       423 4.87917E-02 3.00000E-02 0.00000E+00
 -1       424 4.85000E-02 3.00000E-02 0.00000E+00
 -1       425 4.82084E-02 3.00000E-02 0.00000E+00
 -1       426 4.79167E-02 3.00000E-02 0.00000E+00
 -1       427 4.76251E-02 3.00000E-02 0.00000E+00
 -1       428 4.73334E-02 3.00000E-02 0.00000E+00
 -1       429 4.70417E-02 3.00000E-02 0.00000E+00
 -1       430 4.67501E-02 3.00000E-02 0.00000E+00
 -1       431 4.64584E-02 3.00000E-02 0.00000E+00
 -1       432 4.61667E-02 3.00000E-02 0.00000E+00
 -1       433 4.58751E-02 3.00000E-02 0.00000E+00
 -1       434 4.55834E-02 3.00000E-02 0.00000E+00
 -1       435 4.52917E-02 3.00000E-02 0.00000E+00
 -1       436 4.50001E-02 3.00000E-02 0.00000E+00
 -1       437 4.47084E-02 3.00000E-02 0.00000E+00
 -1       438 4.44167E-02 3.00000E-02 0.00000E+00
 -1       439 4.41251E-02 3.00000E-02 0.00000E+00
 -1       440 4.38334E-02 3.00000E-02 0.00000E+00
 -1       441 4.35417E-02 3.00000E-02 0.00000E+00
 -1       442 4.32501E-02 3.00000E-02 0.00000E+00
 -1       443 4.29584E-02 3.00000E-02 0.00000E+00
 -1       444 4.26667E-02 3.00000E-02 0.00000E+00
 -1       445 4.23751E-02 3.00000E-02 0.00000E+00
 -1       446 4.20834E-02 3.00000E-02 0.00000E+00
 -1       447 4.17917E-02 3.00000E-02 0.00000E+00
 -1       448 4.15001E-02 3.00000E-02 0.00000E+00
 -1       449 4.12084E-02 3.00000E-02 0.00000E+00
 -1       450 4.09167E-02 3.00000E-02 0.00000E+00
 -1       451 4.06251E-02 3.00000E-02 0.00000E+00
 -1       452 4.03334E-02 3.00000E-02 0.00000E+00
 -1       453 4.00417E-02 3.00000E-02 0.00000E+00
 -1       454 3.97501E-02 3.00000E-02 0.00000E+00
 -1       455 3.94584E-02 3.00000E-02 0.00000E+00
 -1       456 3.91667E-02 3.00000E-02 0.00000E+00
 -1       457 3.88751E-02 3.00000E-02 0.00000E+00
 -1       458 3.85834E-02 3.00000E-02 0.00000E+00
 -1       459 3.82917E-02 3.00000E-02 0.00000E+00
 -1       460 3.80001E-02 3.00000E-02 0.00000E+00
 -1       461 3.77084E-02 3.00000E-02 0.00000E+00
 -1       462 3.74167E-02 3.00000E-02 0.00000E+00
 -1       463 3.71251E-02 3.00000E-02 0.00000E+00
 -1       464 3.68334E-02 3.00000E-02 0.00000E+00
 -1       465 3.65418E-02 3.00000E-02 0.00000E+00
 -1       466 3.62501E-02 3.00000E-02 0.00000E+00
 -1       467 3.59584E-02 3.00000E-02 0.00000E+00
 -1       468 3.56668E-02 3.00000E-02 0.00000E+00
 -1       469 3.53751E-02 3.00000E-02 0.00000E+00
 -1       470 3.50834E-02 3.00000E-02 0.00000E+00
 -1       471 3.47918E-02 3.00000E-02 0.00000E+00
 -1       472 3.45001E-02 3.00000E-02 0.00000E+00
 -1       473 3.42084E-02 3.00000E-02 0.00000E+00
 -1       474 3.39168E-02 3.00000E-02 0.00000E+00
 -1       475 3.36251E-02 3.00000E-02 0.00000E+00
 -1       476 3.33334E-02 3.00000E-02 0.00000E+00
 -1       477 3.30418E-02 3.00000E-02 0.00000E+00
 -1       478 3.27501E-02 3.00000E-02 0.00000E+00
 -1       479 3.24584E-02 3.00000E-02 0.00000E+00
 -1       480 3.21668E-02 3.00000E-02 0.00000E+00
 -1       481 3.18751E-02 3.00000E-02 0.00000E+00
 -1       482 3.15834E-02 3.00000E-02 0.00000E+00
 -1       483 3.12918E-02 3.00000E-02 0.00000E+00
 -1       484 3.10001E-02 3.00000E-02 0.00000E+00
 -1       485 6.60000E-02 3.00250E-02 1.60000E-01
 -1       486 6.57083E-02 3.00250E-02 1.60000E-01
 -1       487 6.54167E-02 3.00250E-02 1.60000E-01
 -1       488 6.51250E-02 3.00250E-02 1.60000E-01
 -1       489 6.48333E-02 3.00250E-02 1.60000E-01
 -1       490 6.45417E-02 3.00250E-02 1.60000E-01
 -1       491 6.42500E-02 3.00250E-02 1.60000E-01
 -1       492 6.39583E-02 3.00250E-02 1.60000E-01
 -1       493 6.36666E-02 3.00250E-02 1.60000E-01
 -1       494 6.33750E-02 3.00250E-02 1.60000E-01
 -1       495 6.30833E-02 3.00250E-02 1.60000E-01
 -1       496 6.27916E-02 3.00250E-02 1.60000E-01
 -1       497 6.25000E-02 3.00250E-02 1.60000E-01
 -1       498 6.22083E-02 3.00250E-02 1.60000E-01
 -1       499 6.19166E-02 3.00250E-02 1.60000E-01
 -1       500 6.16250E-02 3.00250E-02 1.60000E-01
 -1       501 6.13333E-02 3.00250E-02 1.60000E-01
 -1       502 6.10416E-02 3.00250E-02 1.60000E-01
 -1       503 6.07500E-02 3.00250E-02 1.60000E-01
 -1       504 6.04583E-02 3.00250E-02 1.60000E-01
 -1       505 6.01666E-02 3.00250E-02 1.60000E-01
 -1       506 5.98750E-02 3.00250E-02 1.60000E-01
 -1       507 5.95833E-02 3.00250E-02 1.60000E-01
 -1       508 5.92916E-02 3.00250E-02 1.60000E-01
 -1       509 5.90000E-02 3.00250E-02 1.60000E-01
 -1       510 5.87083E-02 3.00250E-02 1.60000E-01
 -1       511 5.84166E-02 3.00250E-02 1.60000E-01
 -1       512 5.81250E-02 3.00250E-02 1.60000E-01
 -1       513 5.78333E-02 3.00250E-02 1.60000E-01
 -1       514 5.75416E-02 3.00250E-02 1.60000E-01
 -1       515 5.72499E-02 3.00250E-02 1.60000E-01
 -1       516 5.69583E-02 3.00250E-02 1.60000E-01
 -1       517 5.66666E-02 3.00250E-02 1.60000E-01
 -1       518 5.63749E-02 3.00250E-02 1.60000E-01
 -1       519 5.60833E-02 3.00250E-02 1.60000E-01
 -1       520 5.57916E-02 3.00250E-02 1.60000E-01
 -1       521 5.54999E-02 3.00250E-02 1.60000E-01
 -1       522 5.52083E-02 3.00250E-02 1.60000E-01
 -1       523 5.49166E-02 3.00250E-02 1.60000E-01
 -1       524 5.46249E-02 3.00250E-02 1.60000E-01
 -1       525 5.43333E-02 3.00250E-02 1.60000E-01
 -1       526 5.40416E-02 3.00250E-02 1.60000E-01
 -1       527 5.37499E-02 3.00250E-02 1.60000E-01
 -1       528 5.34583E-02 3.00250E-02 1.60000E-01
 -1       529 5.31666E-02 3.00250E-02 1.60000E-01
 -1       530 5.28749E-02 3.00250E-02 1.60000E-01
 -1       531 5.25833E-02 3.00250E-02 1.60000E-01
 -1       532 5.22916E-02 3.00250E-02 1.60000E-01
 -1       533 5.19999E-02 3.00250E-02 1.60000E-01
 -1       534 5.17082E-02 3.00250E-02 1.60000E-01
 -1       535 5.14166E-02 3.00250E-02 1.60000E-01
 -1       536 5.11249E-02 3.00250E-02 1.60000E-01
 -1       537 5.08332E-02 3.00250E-02 1.60000E-01
 -1       538 5.05416E-02 3.00250E-02 1.60000E-01
 -1       539 5.02499E-02 3.00250E-02 1.60000E-01
 -1       540 4.99582E-02 3.00250E-02 1.60000E-01
 -1       541 4.96666E-02 3.00250E-02 1.60000E-01
 -1       542 4.93749E-02 3.00250E-02 1.60000E-01
 -1       543 4.90832E-02 3.00250E-02 1.60000E-01
 -1       544 4.87916E-02 3.00250E-02 1.60000E-01
 -1       545 4.84999E-02 3.00250E-02 1.60000E-01
 -1       546 4.82082E-02 3.00250E-02 1.60000E-01
 -1       547 4.79166E-02 3.00250E-02 1.60000E-01
 -1       548 4.76249E-02 3.00250E-02 1.60000E-01
 -1       549 4.73332E-02 3.00250E-02 1.60000E-01
 -1       550 4.70416E-02 3.00250E-02 1.60000E-01
 -1       551 4.67499E-02 3.00250E-02 1.60000E-01
 -1       552 4.64582E-02 3.00250E-02 1.60000E-01
 -1       553 4.61665E-02 3.00250E-02 1.60000E-01
 -1       554 4.58749E-02 3.00250E-02 1.60000E-01
 -1       555 4.55832E-02 3.00250E-02 1.60000E-01
 -1       556 4.52915E-02 3.00250E-02 1.60000E-01
 -1       557 4.49999E-02 3.00250E-02 1.60000E-01
 -1       558 4.47082E-02 3.00250E-02 1.60000E-01
 -1       559 4.44165E-02 3.00250E-02 1.60000E-01
 -1       560 4.41249E-02 3.00250E-02 1.60000E-01
 -1       561 4.38332E-02 3.00250E-02 1.60000E-01
 -1       562 4.35415E-02 3.00250E-02 1.60000E-01
 -1       563 4.32499E-02 3.00250E-02 1.60000E-01
 -1       564 4.29582E-02 3.00250E-02 1.60000E-01
 -1       565 4.26665E-02 3.00250E-02 1.60000E-01
 -1       566 4.23749E-02 3.00250E-02 1.60000E-01
 -1       567 4.20832E-02 3.00250E-02 1.60000E-01
 -1       568 4.17915E-02 3.00250E-02 1.60000E-01
 -1       569 4.14999E-02 3.00250E-02 1.60000E-01
 -1       570 4.12082E-02 3.00250E-02 1.60000E-01
 -1       571 4.09165E-02 3.00250E-02 1.60000E-01
 -1       572 4.06248E-02 3.00250E-02 1.60000E-01
 -1       573 4.03332E-02 3.00250E-02 1.60000E-01
 -1       574 4.00415E-02 3.00250E-02 1.60000E-01
 -1       575 3.97498E-02 3.00250E-02 1.60000E-01
 -1       576 3.94582E-02 3.00250E-02 1.60000E-01
 -1       577 3.91665E-02 3.00250E-02 1.60000E-01
 -1       578 3.88748E-02 3.00250E-02 1.60000E-01
 -1       579 3.85832E-02 3.00250E-02 1.60000E-01
 -1       580 3.82915E-02 3.00250E-02 1.60000E-01
 -1       581 3.79998E-02 3.00250E-02 1.60000E-01
 -1       582 3.77082E-02 3.00250E-02 1.60000E-01
 -1       583 3.74165E-02 3.00250E-02 1.60000E-01
 -1       584 3.71248E-02 3.00250E-02 1.60000E-01