/*--------------------------------*- C++ -*----------------------------------*\
  =========                 |
  \\      /  F ield         | OpenFOAM: The Open Source CFD Toolbox
   \\    /   O peration     | Website:  https://openfoam.org
    \\  /    A nd           | Version:  7
     \\/     M anipulation  |
\*---------------------------------------------------------------------------*/
FoamFile
{
    version     2.0;
    format      ascii;
    class       volScalarField;
    location    "732";
    object      p;
}
// * * * * * * * * * * * * * * * * * * * * * * * * * * * * * * * * * * * * * //

dimensions      [0 2 -2 0 0 0 0];

internalField   nonuniform List<scalar> 
38464
(
0.00459688624907
0.00461123649746
0.00463848414108
0.00467736962274
0.00472665508599
0.00478516191714
0.0048517690757
0.00492540996663
0.00500507050029
0.00508978767452
0.00517864870317
0.00527079073234
0.00536540097755
0.00546171720789
0.00555902838432
0.00565667536103
0.00575405147765
0.00585060297268
0.00594582909126
0.00603928185675
0.00613056543163
0.00621933507925
0.00630529569929
0.00638819998443
0.00646784620605
0.00654407570223
0.0066167700946
0.00668584832144
0.00675126351737
0.00681299983141
0.00687106920515
0.00692550819956
0.00697637487669
0.00702374581741
0.0070677132621
0.00710838244728
0.00714586910566
0.00718029719486
0.00721179680652
0.00724050231308
0.00726655069405
0.00729008009118
0.00731122852986
0.00733013284865
0.00734692777452
0.00736174517818
0.00737471345274
0.00738595706946
0.00739559620203
0.00740374583239
0.00741051437512
0.00741601901276
0.00458462358614
0.00459898379981
0.0046262991287
0.00466530365246
0.00471475017409
0.00477346610591
0.00484033538892
0.00491429616486
0.00499433883133
0.00507950419937
0.00516888242502
0.00526161252593
0.00535688242519
0.00545392934249
0.00555204043693
0.00565055351296
0.00574885770138
0.00584639395702
0.0059426553191
0.00603718682207
0.0061295850459
0.00621949724331
0.00630662007248
0.00639069791727
0.00647152085283
0.00654892227252
0.00662277624873
0.00669299466618
0.00675952420037
0.00682234319192
0.00688145847651
0.00693690222696
0.00698872884444
0.00703701195768
0.00708184153916
0.00712332119787
0.00716156563013
0.00719669828673
0.00722884921537
0.0072581531323
0.0072847476694
0.0073087718405
0.00733036467127
0.00734966402434
0.00736680556875
0.00738192191304
0.00739514183846
0.00740658966778
0.00741638510046
0.00742464334759
0.00743146824466
0.00743694224781
0.00455547772469
0.00456991816047
0.00459740917458
0.00463668492384
0.00468650270975
0.00474570346523
0.00481318184585
0.0048878875682
0.00496882189869
0.0050550350042
0.00514562436162
0.00523973386061
0.00533655354196
0.00543531982545
0.0055353160842
0.00563587340837
0.00573637142196
0.00583623902277
0.00593495493611
0.00603204799747
0.00612709709198
0.00621973071685
0.00630962613201
0.00639650811339
0.0064801473043
0.00656035821904
0.00663699691241
0.00670995839823
0.00677917383509
0.00684460757983
0.00690625411931
0.00696413498985
0.00701829567612
0.00706880260359
0.00711574018938
0.00715920806956
0.00719931843801
0.00723619361608
0.00726996376513
0.00730076485527
0.00732873679252
0.00735402180274
0.00737676297946
0.00739710307119
0.00741518343074
0.00743114318898
0.00744511857812
0.00745724228388
0.0074676429591
0.00747644741239
0.00748378209481
0.00748975162605
0.00451154124795
0.0045261073739
0.00455385350154
0.00459351659917
0.00464386791664
0.00470376759462
0.00477212726127
0.00484791529016
0.00493015020342
0.00501789728319
0.00511026613948
0.00520640918936
0.00530552088768
0.00540683770032
0.00550963851678
0.00561324547853
0.00571702494674
0.00582038858102
0.00592279429494
0.0060237470781
0.00612279950204
0.00621955192876
0.00631365229412
0.00640479551584
0.00649272245095
0.00657721847785
0.00665811167286
0.00673527067198
0.00680860222145
0.00687804851156
0.00694358431862
0.00700521404218
0.00706296867347
0.00711690276381
0.00716709143541
0.00721362747595
0.00725661856334
0.00729618463186
0.00733245542709
0.00736556823396
0.00739566582088
0.00742289456791
0.00744740280913
0.00746933935137
0.00748885217904
0.00750608731642
0.00752118790243
0.00753429331153
0.00754553751799
0.00755504912698
0.00756296121963
0.00756941300421
0.00445613573178
0.00447084287221
0.00449887844753
0.00453898563202
0.0045899545943
0.00465066901529
0.00472006396594
0.00479713324338
0.00488091899365
0.00497050763476
0.00506502639847
0.00516364084012
0.00526555353848
0.0053700035465
0.00547626665194
0.00558365609339
0.00569152374493
0.0057992614482
0.00590630249974
0.00601212301367
0.00611624318267
0.00621822820598
0.00631768893529
0.00641428205971
0.00650770991374
0.00659771978139
0.00668410281083
0.00676669245758
0.00684536259327
0.00692002523157
0.00699062801984
0.00705715146774
0.00711960606258
0.00717802924699
0.00723248240445
0.00728304781827
0.00732982574208
0.00737293153028
0.00741249295531
0.00744864764421
0.00748154074477
0.00751132274661
0.00753814754586
0.0075621706842
0.00758354782314
0.00760243337632
0.00761897941873
0.00763333501016
0.0076456447181
0.00765604568485
0.0076646805152
0.0076717582838
0.00439080312171
0.00440565243805
0.00443398095088
0.00447454325908
0.00452615387535
0.00458772538825
0.00465822319069
0.00473667360646
0.00482214928536
0.00491376480602
0.00501067154621
0.00511205430404
0.00521712907418
0.00532514199616
0.00543536913671
0.00554711712903
0.00565972432553
0.00577256246189
0.00588503851597
0.00599659675363
0.00610672067684
0.00621493488127
0.00632080657981
0.00642394682893
0.00652401126462
0.00662070042143
0.0067137594946
0.00680297765518
0.00688818682727
0.00696926006576
0.00704610948236
0.00711868387475
0.00718696603152
0.00725096987064
0.00731073739471
0.0073663356132
0.00741785341269
0.00746539851114
0.00750909446763
0.00754907786425
0.00758549562117
0.00761850253922
0.00764825902282
0.00767492905558
0.00769867838334
0.00771967291763
0.00773807729202
0.00775405405005
0.00776776271171
0.00777935403063
0.00778897673573
0.00779694277301
0.00431621595077
0.00433119714971
0.004359798392
0.00440079131042
0.00445302094066
0.0045154350251
0.00458703681316
0.00466689261651
0.00475411339593
0.00484784975728
0.00494728503523
0.00505163068003
0.00516012312408
0.00527202182333
0.00538660856233
0.00550318766129
0.00562108710135
0.00573966023588
0.00585828807298
0.0059763818101
0.00609338559801
0.00620877923533
0.0063220807842
0.00643284884279
0.00654068449637
0.00664523273152
0.00674618337725
0.00684327141391
0.00693627675766
0.00702502341632
0.00710937816138
0.00718924865662
0.00726458121215
0.00733535813389
0.0074015948451
0.00746333676437
0.00752065610924
0.00757364861071
0.00762243028974
0.00766713427295
0.00770790777368
0.00774490920388
0.00777830551481
0.00780826972019
0.00783497868658
0.00785861112914
0.00787934572282
0.007897359733
0.00791282874909
0.00792591984103
0.00793678006483
0.00794586117446
0.0042332003709
0.00424828964925
0.00427711907714
0.00431848294718
0.00437126275158
0.00443444799003
0.00450708731696
0.00458829488063
0.00467722815376
0.00477308242217
0.00487508159273
0.00498247249637
0.00509452040247
0.00521050615732
0.00532972459916
0.00545148428471
0.00557510820311
0.00569993548958
0.00582532380947
0.00595065239212
0.00607532538283
0.00619877547798
0.00632046751973
0.0064399020252
0.00655661835492
0.00667019752778
0.00678026443584
0.00688648951467
0.00698858968355
0.00708632866479
0.00717951655878
0.0072680088311
0.00735170464138
0.00743054470191
0.00750450863219
0.00757361201016
0.00763790310394
0.00769745947954
0.00775238446981
0.00780280368059
0.00784886151093
0.00789071783552
0.00792854481399
0.00796252393943
0.00799284328932
0.00801969510038
0.00804327341964
0.00806377203253
0.00808138459854
0.00809629980636
0.00810865558932
0.00811908816013
0.00414277199667
0.00415793258714
0.00418692161611
0.00422856156912
0.00428177628216
0.00434560343504
0.00441914452906
0.00450156924327
0.00459209001525
0.00468995568973
0.00479444009868
0.00490483502945
0.00502044437721
0.00514057999219
0.00526455915316
0.00539170337686
0.00552133861494
0.00565279654241
0.0057854169391
0.00591855085016
0.0060515644864
0.00618384352814
0.00631479777165
0.00644386577559
0.00657051945214
0.00669426828111
0.00681466312582
0.00693129937733
0.00704381946175
0.00715191450373
0.00725532524626
0.00735384209059
0.00744730441674
0.00753559911003
0.00761865849741
0.00769645766244
0.00776901136304
0.0078363705427
0.00789861865703
0.00795586780984
0.00800825489941
0.00805593776039
0.00809909147185
0.00813790479616
0.00817257687646
0.0082033142171
0.00823032790257
0.00825383061308
0.00827403639422
0.00829116214159
0.00830532733588
0.00831740401051
0.00404589892545
0.004061083281
0.00409014204781
0.00413193149284
0.00418542355413
0.00424971033307
0.00432395311732
0.00440738458467
0.00449928032644
0.00459895173281
0.00470573213684
0.00481896858956
0.00493801431644
0.00506222327062
0.00519094626679
0.00532352874976
0.00545931001955
0.00559762390475
0.00573780067362
0.00587917013408
0.00602106566233
0.00616282906509
0.00630381596658
0.00644340159787
0.00658098665257
0.00671600309035
0.00684791956041
0.00697624636538
0.00710053968204
0.00722040502686
0.00733549975301
0.0074455346485
0.00755027450156
0.00764953778037
0.00774319536517
0.00783116853832
0.00791342622151
0.00798998169693
0.00806088882706
0.00812623801334
0.00818615191004
0.00824078111361
0.00829029983137
0.00833490171558
0.00837479581898
0.00841020289515
0.00844135201526
0.00846847669113
0.00849181286142
0.00851161272613
0.00852796500367
0.0085420372892
0.00394344297888
0.00395859468236
0.00398761568325
0.00402940144975
0.00408297753038
0.00414749612594
0.00422218469142
0.00430634570254
0.0043993256796
0.00450050714491
0.00460929250514
0.00472509456775
0.00484732726883
0.0049753987333
0.00510870593386
0.00524663107191
0.00538853958184
0.00553377974707
0.00568168381909
0.00583157057681
0.00598274916654
0.00613452408002
0.00628620105711
0.00643709369187
0.00658653049327
0.00673386212737
0.0068784685936
0.00701976605284
0.00715721310535
0.00729031627238
0.00741863456322
0.00754178295245
0.00765943475342
0.00777132279876
0.00787723951718
0.00797703589643
0.00807061950438
0.00815795161354
0.00823904365136
0.00831395304605
0.00838277870655
0.00844565620049
0.00850275285771
0.00855426284458
0.00860040237188
0.00864140507886
0.00867751798677
0.00870899679437
0.00873610018915
0.00875912376853
0.00877811011993
0.00879459299013
0.00383620925426
0.00385126475808
0.00388012638682
0.00392173396615
0.00397517155068
0.00403965641091
0.00411448761028
0.00419904340962
0.00429274814119
0.00439506338068
0.00450546966641
0.00462345585575
0.00474850810591
0.00488010135691
0.00501769238283
0.0051607145149
0.00530857415513
0.00546064891571
0.00561628754911
0.00577481146225
0.00593551790495
0.00609768456174
0.00626057553403
0.00642344836584
0.00658556199953
0.0067461852565
0.00690460565952
0.00706013817633
0.00721213368144
0.00735998675605
0.00750314265878
0.00764110317868
0.00777343128265
0.00789975439307
0.00801976630699
0.00813322772294
0.0082399654788
0.00833987057709
0.00843289516494
0.00851904861854
0.00859839292459
0.00867103754104
0.00873713391386
0.00879686984542
0.00885046382192
0.00889815941805
0.00894022031382
0.0089769251552
0.00900855543392
0.00903545952316
0.00905761464556
0.0090770043513
0.00372497504129
0.00373986547726
0.00376843559828
0.00380967423044
0.00386272812261
0.00392688359936
0.00400151572109
0.00408608332158
0.00418009431869
0.00428309616314
0.00439465564655
0.00451434730607
0.0046417406175
0.00477639004087
0.00491782624584
0.00506554914949
0.00521902252944
0.00537767047891
0.00554087556572
0.00570797893125
0.00587828213301
0.00605105088912
0.00622552043109
0.00640090250866
0.00657639363953
0.00675118453221
0.00692447017791
0.00709546045722
0.00726339070935
0.00742753208623
0.00758720115929
0.00774176864557
0.00789066680866
0.00803339550196
0.00816952654426
0.00829870652505
0.00842065787772
0.00853517844363
0.0086421394935
0.00874148252235
0.00883321486898
0.00891740452357
0.00899417420194
0.00906369506418
0.00912618014415
0.00918187767412
0.009231064882
0.00927404297724
0.00931111502124
0.00934269272966
0.0093686637429
0.00939156049512
0.0036104850784
0.00362513821393
0.00365327775624
0.00369394562317
0.00374635456875
0.00380986290678
0.00388392478564
0.00396808307654
0.00406193360878
0.00416511511015
0.00427728745723
0.00439811926931
0.00452727358218
0.00466439644842
0.00480910647537
0.00496098595693
0.00511957356797
0.00528435867172
0.0054547774848
0.00563021107889
0.00580998546131
0.00599337363069
0.00617959976967
0.0063678453391
0.00655725710713
0.00674695672521
0.00693605174271
0.00712364753812
0.00730885994624
0.00749082798226
0.00766872639733
0.00784177747128
0.00800926181742
0.00817052769581
0.00832499872546
0.00847217964679
0.00861166018336
0.00874311683408
0.00886631280346
0.00898109606295
0.00908739587178
0.00918521786364
0.00927463808283
0.00935579613299
0.00942888786338
0.00949415750794
0.00955188998573
0.00960240681568
0.00964602939671
0.00968324447411
0.00971381961893
0.00974095360341
0.00349344296643
0.00350778504804
0.00353535158137
0.0035752409646
0.00362673437213
0.00368926384948
0.0037623643929
0.00384566483686
0.00393885164057
0.00404165853679
0.00415384358869
0.00427517634699
0.00440542214844
0.00454432958456
0.0046916183771
0.00484696875025
0.00501001202135
0.00518032270549
0.00535741223384
0.00554072455954
0.00572963374475
0.00592344380122
0.00612139076659
0.00632264721514
0.00652632901616
0.00673150439143
0.00693720489418
0.0071424381792
0.0073462020139
0.00754749924307
0.00774535304468
0.00793882211198
0.00812701508236
0.0083091038784
0.00848433537252
0.00865204117142
0.00881164511056
0.0089626684481
0.00910473256853
0.00923755938677
0.00936096946845
0.00947487821794
0.00957929029233
0.00967429267035
0.0097600466918
0.00983677924297
0.00990477304335
0.00996436488624
0.0100158882845
0.0100599176914
0.0100960621922
0.0101283262307
0.00337450942496
0.00338846692505
0.00341531799284
0.00345422021868
0.00350452461593
0.00356573753451
0.00363747514452
0.00371945261165
0.00381144797712
0.00391329180449
0.00402484352579
0.00414597842649
0.00427657099285
0.00441648149486
0.00456554248211
0.00472354652592
0.00489023483554
0.00506528705074
0.00524831241311
0.00543884255073
0.00563632619342
0.00584012601283
0.00604951793216
0.00626369296236
0.0064817618405
0.00670276233069
0.00692566928288
0.00714940708583
0.00737286437274
0.00759491039702
0.00781441272167
0.00803025547783
0.00824135771465
0.00844669104428
0.00864529611675
0.00883629721406
0.00901891464436
0.00919247443107
0.00935641521445
0.00951029213028
0.00965377784174
0.00978666075373
0.0099088407967
0.0100203229759
0.0101212093164
0.0102116893533
0.0102920280636
0.0103625682089
0.0104236449098
0.0104759334758
0.0105188360897
0.0105573280593
0.00325430293452
0.00326780408944
0.00329380028069
0.00333151023284
0.0033803552794
0.00343991544762
0.00350988704961
0.00359007033005
0.00368033407671
0.00378060552937
0.00389084646614
0.00401104047311
0.00414117566194
0.00428123082538
0.0044311608682
0.00459088325701
0.00476026486446
0.00493910960673
0.00512714703378
0.00532402217871
0.00552928699198
0.0057423937489
0.00596269072615
0.00618942059207
0.00642172166077
0.00665863238048
0.0068990989958
0.00714198653193
0.00738609278006
0.00763016513055
0.0078729196514
0.00811306197304
0.00834930914389
0.00858041183673
0.00880517596502
0.00902248307329
0.00923130863086
0.00943073775277
0.00961997771174
0.00979836705665
0.00996538103242
0.0101206334555
0.0102638750815
0.01039498886
0.0105139824933
0.0106209790581
0.0107162021105
0.0107999848339
0.0108726471157
0.0109349779373
0.0109861112983
0.0110321891258
0.00313339917034
0.00314637537368
0.00317138299633
0.00320770315039
0.0032548270227
0.00331240661442
0.00338021600774
0.0034581377728
0.00354612882188
0.00364421088996
0.00375244686653
0.00387092868457
0.00399975993828
0.00413904202177
0.00428885896565
0.00444926302596
0.00462026014633
0.00480179575597
0.00499374098099
0.00519587961877
0.00540789619135
0.00562936553295
0.00585974435864
0.00609836525972
0.00634443365291
0.00659702800469
0.00685510376822
0.00711750114261
0.00738295682912
0.00765011958181
0.00791756936165
0.00818383951809
0.00844744143953
0.00870689075923
0.00896073429854
0.00920757664586
0.00944610549241
0.00967511465994
0.00989352411276
0.0101003961524
0.0102949474469
0.0104765565025
0.01064476669
0.0107992848011
0.0109399757129
0.0110668543222
0.011180067728
0.0112799147361
0.0113666740643
0.0114412592877
0.0115024584024
0.0115578115569
0.00301232976894
0.00302471671522
0.00304861010981
0.00308335398191
0.00312850809316
0.00318379369583
0.00324905911544
0.00332426505599
0.0034094522931
0.00350473293599
0.00361026747653
0.00372625374132
0.00385290981139
0.00399046069993
0.00413912308944
0.00429909061224
0.00447051846306
0.00465350784443
0.00484809025253
0.00505421184765
0.00527171832508
0.0055003406094
0.00573968199177
0.0059892071918
0.00624823401874
0.00651592818632
0.00679130190738
0.00707321671434
0.00736039092062
0.00765141188409
0.0079447530993
0.00823879585465
0.00853185498118
0.00882220796056
0.00910812643756
0.00938790903406
0.00965991420023
0.00992259186538
0.0101745126018
0.0104143932381
0.0106411179227
0.0108537540171
0.0110515623561
0.011234001777
0.0114007279323
0.0115515887979
0.0116866040039
0.0118059998518
0.0119099747345
0.0119995734479
0.0120731385587
0.0121398819463
0.00289158152489
0.00290332016461
0.00292598355182
0.00295897856827
0.00300193150197
0.00305462931069
0.00311698998145
0.00318904696531
0.00327091912394
0.00336280303398
0.00346495118482
0.00357766230815
0.00370126513744
0.00383610607587
0.00398253441743
0.00414088793695
0.00431147728487
0.00449456976848
0.00469037229642
0.00489901381119
0.0051205273243
0.00535483211448
0.00560171640381
0.00586082130534
0.00613162654255
0.00641343892414
0.00670538413146
0.00700640284418
0.0073152516774
0.00763050973256
0.00795059095539
0.00827376262587
0.00859816967723
0.00892186452233
0.00924284146944
0.00955907474535
0.0098685586628
0.0101693484783
0.0104596002089
0.0107376078461
0.0110018363787
0.0112509493694
0.011483830076
0.0116995954719
0.0118976025336
0.0120774506112
0.0122389588631
0.0123822236857
0.0125073050801
0.0126153773605
0.0127042098576
0.0127850081147
0.00277159628897
0.00278263352413
0.00280396246287
0.00283505218093
0.00287559285438
0.00292543287987
0.00298455452627
0.00305305754884
0.00313113188934
0.00321905110992
0.00331715215028
0.00342582737292
0.00354550952573
0.00367666094222
0.00381975977369
0.00397528654411
0.00414370905578
0.00432546625355
0.0045209507218
0.00473048987106
0.00495432607412
0.00519259585983
0.00544530876483
0.00571232621684
0.00599334136489
0.00628786044123
0.00659518690179
0.00691440905181
0.00724439251471
0.00758377824254
0.0079309872191
0.00828423227402
0.00864153762246
0.0090007659434
0.00935965281204
0.00971584747177
0.010066958876
0.0104106051779
0.0107444648985
0.0110663274611
0.0113741410805
0.0116660557367
0.011940459602
0.0121960073243
0.0124316384671
0.0126465917724
0.0128403827521
0.013012893102
0.0131639591972
0.0132948686502
0.0134026518979
0.0135008853705
0.0026527713615
0.0026630605545
0.00268296293802
0.00271200867956
0.00274994867857
0.00279668801442
0.00285226719266
0.00291684509274
0.00299067469022
0.00307409778363
0.00316752659403
0.00327143773983
0.00338635883387
0.00351285957481
0.00365153954916
0.00380301637383
0.00396791183274
0.0041468367207
0.00434037374251
0.00454905861961
0.00477335919404
0.00501365282527
0.00527020218093
0.00554312998135
0.00583239316364
0.00613775744556
0.00645877305719
0.00679475306323
0.00714475530207
0.00750756959209
0.00788171131811
0.00826542292416
0.0086566841523
0.0090532319885
0.00945259042908
0.00985211004425
0.0102490163626
0.0106404658456
0.0110236073181
0.0113956465562
0.0117539110981
0.0120959124518
0.0124194027012
0.012722423187
0.0130033412969
0.013260883973
0.0134941191776
0.013702590488
0.0138857866498
0.0140450682106
0.0141765100189
0.0142964983947
0.002535460294
0.00254496154679
0.00256335824646
0.00259024011888
0.00262541529331
0.00266884038837
0.00272060772285
0.0027809275391
0.0028501071289
0.00292854677713
0.00301672350865
0.0031151871447
0.00322454876863
0.00334547411222
0.0034786733256
0.00362489129668
0.00378489572461
0.00395946375232
0.00414936635709
0.00435535037144
0.00457811799248
0.0048183035667
0.00507644780595
0.00535296955075
0.00564813555532
0.00596202882363
0.00629451652229
0.00664521843695
0.00701347758742
0.00739833440459
0.00779850650272
0.00821237568425
0.00863798423892
0.00907304196155
0.00951494539046
0.00996080985564
0.0104075146382
0.010851760412
0.0112901376254
0.0117192033311
0.0121355635238
0.0125359571574
0.012917337949
0.0132769501936
0.0136123920227
0.0139216779233
0.0142032305243
0.0144560780433
0.0146791826474
0.014873898589
0.0150350588226
0.0151823652555
0.00241997410419
0.00242865437797
0.00244547948359
0.00247009689678
0.00250236820465
0.00254229626986
0.00259001853885
0.00264578861697
0.00270995890974
0.0027829778314
0.00286537580288
0.00295776345074
0.0030608221917
0.00317530006956
0.00330200389077
0.0034417921567
0.00359556568133
0.00376425682899
0.00394881628281
0.00415019729427
0.00436933680944
0.00460713333989
0.00486442122724
0.00514194128825
0.00544030788767
0.00575997281445
0.00610118648503
0.006463957518
0.00684801183528
0.00725275311269
0.00767722641519
0.00812008753446
0.00857958034258
0.00905352495648
0.00953931897324
0.0100339540878
0.0105340494495
0.0110359026402
0.0115355578068
0.0120288896009
0.01251170009
0.0129798248598
0.0134292432678
0.0138561881871
0.0142572447811
0.0146294547663
0.0149703279876
0.0152781265422
0.0155510296513
0.0157902452063
0.0159889817635
0.0161708305367
0.00230658287525
0.00231441592918
0.0023296167172
0.00235188838786
0.00238114212942
0.00241742167023
0.00246090291515
0.00251187471488
0.0025707252897
0.0026379404671
0.00271409211403
0.00279983842029
0.00289591665602
0.00300314164309
0.00312240040704
0.00325464808831
0.00340090155793
0.00356223189262
0.00373975445038
0.00393461632741
0.00414798062669
0.00438100694695
0.00463482768725
0.00491051971061
0.00520907110115
0.00553134290642
0.00587802606188
0.0062495939646
0.00664625165872
0.00706788297313
0.00751399760182
0.00798368047621
0.00847554650013
0.0089877038717
0.00951772973417
0.0100626616501
0.0106190083769
0.0111827825605
0.0117495572033
0.0123145462089
0.0128727078919
0.0134188683354
0.0139478596732
0.0144546680415
0.0149345767066
0.0153833266202
0.0157971609422
0.0161732266144
0.0165085560593
0.0168039772796
0.0170505577851
0.0172764136198
0.00219551770629
0.00220248391579
0.00221602050189
0.00223588408641
0.00226203153324
0.00229454219321
0.00233362384081
0.00237959266064
0.00243286342224
0.00249394869739
0.00256344965701
0.00264205835042
0.00273055267447
0.00282979739223
0.00294074145152
0.003064416994
0.00320193628497
0.00335448790168
0.00352333073403
0.00370978569858
0.00391522425026
0.00414105319553
0.00438869495969
0.00465956265102
0.00495502923135
0.0052763902179
0.00562481954776
0.00600131847252
0.00640665782176
0.00684131435561
0.00730540268184
0.00779860480451
0.00832010023909
0.0088685003498
0.00944179134575
0.0100372908848
0.0106516235806
0.0112807205827
0.0119198478742
0.0125636667684
0.0132063284281
0.0138416019784
0.014463032808
0.0150641271684
0.0156385446151
0.0161803291026
0.0166840020362
0.017145119585
0.0175590569706
0.0179258883311
0.0182338348152
0.0185162146509
0.00208697290254
0.00209305895707
0.00210490377452
0.00212231511551
0.00214529170981
0.002173943431
0.0022085036662
0.00224930827749
0.00229678971237
0.00235147683176
0.00241398816203
0.00248503591698
0.00256542306551
0.00265604684451
0.00275789860849
0.00287206599423
0.00299973323117
0.00314218129365
0.00330078629513
0.00347701604982
0.0036724239479
0.00388863936262
0.00412735375531
0.00439030147527
0.00467923422518
0.00499588818406
0.00534194276407
0.0057189702596
0.00612837572122
0.0065713270917
0.00704867590275
0.00756086994775
0.00810785994465
0.00868900367353
0.00930297187282
0.00994766179543
0.0106201249961
0.0113165171225
0.012032077452
0.0127611459366
0.013497224078
0.0142330842182
0.014960927926
0.0156725940697
0.0163597959888
0.0170144314551
0.0176287388259
0.0181960535547
0.0187093896845
0.0191674872618
0.0195547496114
0.0199103718034
0.00198110839264
0.00198630691107
0.0019964439653
0.00201137611975
0.00203114023798
0.0020558719591
0.00208582434927
0.00212134582799
0.00216287808242
0.00221095638881
0.00226620512564
0.00232934332926
0.00240118372695
0.00248263843152
0.00257472122659
0.00267855265702
0.00279536366929
0.00292649971367
0.00307342366493
0.00323771767229
0.00342108292965
0.00362533680216
0.00385240620481
0.00410431619872
0.00438317250905
0.00469113652805
0.00503039134519
0.00540309716865
0.00581133482824
0.00625703594572
0.00674189914566
0.00726729196929
0.00783413943721
0.00844280103451
0.00909293985084
0.00978338887063
0.0105120218401
0.011275637531
0.0120698684219
0.0128891255018
0.013726591703
0.0145742753325
0.0154231319531
0.0162632639105
0.017084179122
0.0178751724632
0.0186255500063
0.0193256259611
0.0199651061519
0.0205405228312
0.0210311157295
0.0214825426283
0.00187805223772
0.00188236132512
0.00189078537124
0.00190322737236
0.00191975885111
0.00194053673398
0.00196582837417
0.00199598812721
0.00203145922165
0.00207277410992
0.00212055228919
0.00217550699452
0.00223844597367
0.00231027911695
0.00239202280282
0.00248480768134
0.00258988530816
0.00270863600368
0.00284257616662
0.00299336536954
0.00316281236745
0.00335287939406
0.00356568385658
0.00380349627286
0.00406873308281
0.00436394272277
0.00469178301337
0.00505498784137
0.00545632068841
0.00589851281975
0.00638418371827
0.00691574195628
0.00749526511037
0.00812435858686
0.00880399443688
0.00953433357119
0.0103145368968
0.0111425742555
0.0120150428112
0.0129270101772
0.0138718998745
0.0148414391887
0.0158256877984
0.016813170815
0.0177911055956
0.0187458162179
0.0196630047578
0.0205290106232
0.0213290058923
0.022056042809
0.022682332894
0.0232603401602
0.00177790326659
0.0017813260162
0.00178804159564
0.00179799714335
0.00181129552777
0.00182811094967
0.00184872011244
0.00187347741934
0.00190282062011
0.00193727103992
0.00197743344985
0.00202400362656
0.00207777062821
0.00213962589949
0.00221056940525
0.00229171959538
0.00238432266357
0.00248976367652
0.00260957788301
0.00274546276303
0.00289928998553
0.00307311700706
0.0032691973862
0.00348998893168
0.0037381583429
0.00401658070294
0.00432833183956
0.00467667100504
0.0050650111415
0.00549687328446
0.00597582164412
0.00650537552317
0.00708889447217
0.00772943344669
0.00842956587747
0.00919117404092
0.0100152088668
0.0109014243933
0.0118480968206
0.0128517428292
0.0139068579558
0.0150057014017
0.0161381568368
0.0172917104002
0.0184515502786
0.0196009246413
0.0207213871898
0.0217942885064
0.0227987792885
0.0237226584982
0.024528549049
0.0252755646475
0.00168073366821
0.00168327766113
0.00168829814134
0.00169578412381
0.00170586685119
0.00171873411379
0.00173466767864
0.00175401671814
0.00177720741088
0.00180474251955
0.00183720337577
0.00187525782498
0.00191966374897
0.00197127928757
0.00203107024571
0.00210012181447
0.002179649821
0.00227101457659
0.00237573550322
0.00249550746353
0.00263221813396
0.00278796630145
0.00296508057342
0.00316613775139
0.00339397985926
0.00365172842161
0.00394279407698
0.00427087918212
0.00463997021315
0.00505431634279
0.00551838955285
0.00603682112384
0.00661430860725
0.00725548707377
0.00796475839081
0.00874607306169
0.00960266058367
0.0105367073355
0.0115489850245
0.0126384392634
0.0138017552776
0.0150329285349
0.0163228756061
0.0176591435834
0.0190257399054
0.0204032740487
0.0217690184475
0.0230984966857
0.024363232132
0.0255434561151
0.0265887738316
0.0275638920929
0.00158659163149
0.00158826840183
0.00159161494367
0.00159666001218
0.00160356044835
0.00161251445684
0.00162380507521
0.0016377717702
0.00165482383238
0.0016754391265
0.00170016794768
0.00172964105398
0.00176457418342
0.00180577886374
0.00185417076052
0.00191078248158
0.00197677627643
0.00205345978621
0.00214230321015
0.00224495900835
0.0023632836494
0.00249936171266
0.00265553196403
0.00283441520596
0.00303894320355
0.00327238775668
0.00353838850348
0.00384097737839
0.00418459708164
0.00457410976384
0.00501479131418
0.00551230522476
0.00607264875184
0.00670206268435
0.00740689477754
0.00819340594773
0.0090675081433
0.010034423513
0.0110982572905
0.0122614814023
0.0135243340996
0.0148841529845
0.0163346714777
0.0178653424807
0.0194607221324
0.0211001597048
0.0227573983297
0.0244019508826
0.0259963939428
0.0275106934685
0.0288770814159
0.030163338425
0.00149550383713
0.00149632837227
0.00149802894887
0.00150067198421
0.00150443751617
0.0015095313042
0.00151623453666
0.00152487311187
0.00153583509002
0.00154956803614
0.00156658488545
0.00158747154527
0.00161289220237
0.00164360032836
0.00168044743778
0.00172439648751
0.00177653526309
0.00183809330499
0.00191046061109
0.00199520962336
0.00209412015924
0.00220920782347
0.0023427560372
0.00249735174266
0.00267592473178
0.00288179021955
0.00311869392709
0.00339085847332
0.00370302902898
0.00406051548076
0.00446922690777
0.00493569283776
0.0054670637877
0.00607108137118
0.00675600571743
0.00753048514997
0.00840335034695
0.00938331290725
0.0104785469514
0.0116961333541
0.0130413498266
0.0145168004824
0.0161213893291
0.0178491841718
0.0196881890615
0.0216193030672
0.0236150681996
0.0256402915502
0.0276484411092
0.0295967651671
0.0313951948312
0.033110004142
0.00140747794524
0.00140746818114
0.00140755660431
0.00140784536184
0.00140853548703
0.00140983792657
0.0014120293629
0.00141541903838
0.00142037019841
0.00142729580777
0.00143666626984
0.00144901629551
0.00146495081719
0.00148515566351
0.00151040644899
0.00154158186335
0.00157967720356
0.00162582153861
0.00168129704059
0.00174756202349
0.00182627759692
0.00191933880683
0.00202891058446
0.00215746918453
0.00230784946886
0.00248329842935
0.00268753505394
0.00292481627918
0.0032000083608
0.00351866204936
0.00388708910378
0.00431243601731
0.00480274892127
0.00536702097878