/*--------------------------------*- C++ -*----------------------------------*\
  =========                 |
  \\      /  F ield         | OpenFOAM: The Open Source CFD Toolbox
   \\    /   O peration     | Website:  https://openfoam.org
    \\  /    A nd           | Version:  7
     \\/     M anipulation  |
\*---------------------------------------------------------------------------*/
FoamFile
{
    version     2.0;
    format      ascii;
    class       volScalarField;
    location    "731";
    object      p;
}
// * * * * * * * * * * * * * * * * * * * * * * * * * * * * * * * * * * * * * //

dimensions      [0 2 -2 0 0 0 0];

internalField   nonuniform List<scalar> 
38464
(
0.0045977868202
0.00458552414629
0.00455637823922
0.00451244165993
0.00445703601893
0.00439170325302
0.0043171159136
0.00423410013136
0.00414367154846
0.00404679823457
0.00394434204938
0.00383710805248
0.00372587358102
0.00361138332312
0.00349434093879
0.00337540708469
0.0032552003126
0.00313429622103
0.00301322653149
0.00289247794856
0.00277249242113
0.00265366714619
0.00253635578734
0.00242086924509
0.00230747772787
0.00219641220403
0.00208786711892
0.00198200225422
0.00187894582673
0.00177879650302
0.00168162664352
0.00158748425985
0.00149639621283
0.0014083699818
0.00132339664918
0.00124145243622
0.0011625013017
0.00108649645102
0.00101338171069
0.000943094541317
0.00461213710128
0.00459988439737
0.00457081870661
0.00452700782197
0.00447174319534
0.00440655260454
0.00433209714803
0.00424918944661
0.00415883217367
0.0040619826282
0.00395949378667
0.00385216359629
0.00374076404869
0.00362603649955
0.00350868304985
0.00338936462832
0.00326870149467
0.00314727246944
0.00302561350206
0.00290421663664
0.00278352967819
0.00266395638956
0.00254585705855
0.00242954957321
0.00231531079804
0.0022033784715
0.00209395318622
0.00198720083714
0.00188325492624
0.00178221932493
0.00168417064883
0.00158916110818
0.00149722076104
0.00140836029791
0.00132257298854
0.00123983743905
0.00116011866018
0.00108337236006
0.00100953977258
0.00093856864657
0.00463938481247
0.00462719979167
0.00459830978798
0.0045547540199
0.00449977883212
0.00443488119182
0.00436069845203
0.00427801895002
0.00418782126395
0.00409104147241
0.00398851484873
0.00388102530261
0.00376933422961
0.00365417612068
0.00353624964255
0.00341621577444
0.00329469774392
0.00317228017224
0.00304950695524
0.00292688010348
0.00280485867458
0.00268385885491
0.00256425381742
0.00244637476017
0.00233051164428
0.00221691514117
0.00210579806321
0.00199733797339
0.00189167902906
0.00178893498557
0.00168919118377
0.00159250772319
0.00149892138418
0.00140844878678
0.0013210879617
0.00123682181567
0.00115561788047
0.00107743640214
0.00100221376758
0.000929918164923
0.00467827038822
0.00466620441297
0.00463758563255
0.0045944172098
0.00453988612078
0.00447544358962
0.00440169147539
0.00431938290866
0.00422946132381
0.00413283100542
0.00403030072374
0.00392263296883
0.0038105729721
0.0036948440722
0.00357613913724
0.00345511808223
0.00333240780995
0.00320860040559
0.00308425094261
0.00295987519649
0.00283594851126
0.00271290467057
0.0025911358102
0.00247099224428
0.00235278343985
0.00223677879346
0.00212320953141
0.00201227019061
0.00190412116307
0.00179889059221
0.00169667730205
0.00159755285242
0.00150156456967
0.00140873761709
0.00131907769415
0.00123257381294
0.00114919786118
0.0010689163647
0.000991659606961
0.000917424394348
0.00472755597586
0.00471565105593
0.00468740354266
0.0046447686548
0.00459085519913
0.00452705433663
0.00445392122126
0.00437216284405
0.00428267615121
0.00418632319879
0.00408387691886
0.00397607068672
0.00386362697769
0.00374725315264
0.00362763265653
0.00350542261553
0.00338125296526
0.00325572441505
0.00312940516036
0.00300282826887
0.00287648928814
0.00275084480986
0.00262631108654
0.00250326369589
0.00238203728081
0.00226292638693
0.0021461862235
0.00203203446049
0.00192065273502
0.00181218912928
0.00170676011565
0.00160445344412
0.00150533017609
0.00140942788926
0.00131676213811
0.00122733113235
0.00114111216282
0.00105808110576
0.000978160103964
0.000901383513019
0.00478606295222
0.00477436713685
0.0047466044446
0.00470466847654
0.00465156977535
0.00458862598992
0.00451633545963
0.00443534822138
0.00434650345764
0.00425061011563
0.00414839566807
0.00404055568539
0.00392778261007
0.00381076162871
0.00369016229026
0.00356663566993
0.00344081329079
0.00331330413973
0.00318469091946
0.00305552620705
0.0029263294707
0.00279758427288
0.00266973633905
0.00254319188603
0.0024183169821
0.00229543717177
0.00217483810911
0.00205676630686
0.00194143079073
0.00182900468221
0.00171962756774
0.0016134075952
0.00151042418115
0.00141073049954
0.00131435566616
0.00122130926521
0.00113157671811
0.00104514501101
0.000961928215423
0.000882004927782
0.00485267028113
0.00484123658767
0.00481408299669
0.00477302831725
0.00472096488861
0.00465912396887
0.00458793740983
0.00450798772291
0.00442004471166
0.00432485307281
0.00422308439333
0.00411538705868
0.00400241489291
0.00388482368305
0.00376326299434
0.0036383734561
0.00351078505053
0.00338111370734
0.0032499564933
0.00311788705074
0.00298545126766
0.00285316362188
0.00272150382163
0.00259091432626
0.00246179837351
0.00233451899006
0.00220939848971
0.00208671886886
0.00196672257395
0.00184961401348
0.00173556126691
0.00162469837111
0.00151712752823
0.00141292206631
0.00131212800518
0.00121476997057
0.00112084360208
0.00103035033362
0.000943195418481
0.000859509490703
0.00492631135841
0.00491519755404
0.00488878890688
0.00484881653239
0.00479803436326
0.0047375745672
0.00466779340851
0.0045891954679
0.00450246961855
0.00440828471984
0.00430724559553
0.0041999430388
0.00408698268585
0.00396898215606
0.0038465636318
0.0037203511037
0.00359096852276
0.00345903564923
0.00332516262231
0.00318994420703
0.00305395447542
0.00291774169139
0.00278182382092
0.00264668457172
0.00251277035501
0.00238048797782
0.00225020328315
0.00212224051776
0.00199688251136
0.00187437149797
0.00175491049773
0.0016386652584
0.00152576631096
0.00141631196519
0.0013103695753
0.00120798259226
0.00110916000588
0.00101392091637
0.000922162250707
0.000834073571552
0.00500597209915
0.00499524042522
0.00496972344636
0.00493105165665
0.00488182031411
0.00482305046075
0.00475501438841
0.00467812895358
0.00459299058969
0.00450018067114
0.00440022577171
0.00429364797836
0.00418099388348
0.00406283289721
0.00393975063605
0.00381234667715
0.00368123246682
0.00354702690269
0.00341035005262
0.00327181656605
0.00313202900489
0.00299157148564
0.0028510035972
0.00271085505857
0.00257162111506
0.00243375893153
0.00229768490483
0.00216377296286
0.00203235379511
0.00190371488798
0.00177810138388
0.00165571750468
0.00153672848142
0.00142126329774
0.00130941591471
0.00120125305281
0.00109680105048
0.000996100205956
0.000899040727322
0.000805877265958
0.00509068949214
0.0050804060159
0.00505593677216
0.00501879895639
0.00497140918591
0.0049146661984
0.00484875097995
0.00477398343861
0.00469085649253
0.0045998522943
0.0045014074622
0.0043959634359
0.00428399594999
0.0041660146167
0.00404255775438
0.00391419072096
0.00378150413872
0.00364510918302
0.00350563091051
0.0033637006837
0.00321994843617
0.00307499478246
0.00292944345202
0.00278387418088
0.00263883649575
0.00249484440642
0.00235237222436
0.00221185147089
0.00207366888188
0.00193816551368
0.00180563668979
0.00167633301232
0.00155046162796
0.00142818913099
0.00130964203097
0.00119491604602
0.00108405923028
0.000977137857842
0.000874037167223
0.000775083850591
0.00517955075605
0.00516978447506
0.00514652636762
0.00511116805245
0.00506592818062
0.00501157318347
0.0049481864899
0.00487598285401
0.00479534113399
0.00470663294166
0.00461019305635
0.00450636995774
0.00439555566903
0.00427818719814
0.00415474304048
0.00402574267534
0.00389174530656
0.00375334538862
0.00361116567696
0.0034658490583
0.00331804969664
0.00316842381123
0.00301762039852
0.00286627236583
0.00271498835339
0.00256434557499
0.00241488376306
0.00226710041249
0.00212144726836
0.00197832812398
0.00183809775387
0.00170106203097
0.00156747868631
0.00143755978834
0.00131147185676
0.00118934602768
0.00107125796814
0.000957305003032
0.000847370875923
0.000741860507573
0.00527169302836
0.00526251482287
0.00524063611159
0.00520731134853
0.00516454287854
0.00511295618565
0.00505253239258
0.00498337400357
0.0049057363233
0.00481986964139
0.00472599537243
0.00462435639841
0.00451524757369
0.00439901925986
0.00427607604436
0.00414687782366
0.00401193955619
0.00387182744962
0.00372715217855
0.00357856041801
0.00342672514931
0.00327233518614
0.00311608425789
0.00295866023568
0.00280073487741
0.00264295448367
0.00248593173104
0.00233023882528
0.0021764021832
0.00202489850484
0.00187615240949
0.00173053533814
0.00158836555016
0.00144991001251
0.00131538392239
0.00118496178658
0.00105875376398
0.000936894653883
0.000819270985433
0.000706372773287
0.00536630352972
0.00535778497692
0.00533745605267
0.00530642330784
0.00526645583083
0.00521803122375
0.00516102509351
0.00509542217988
0.00502134592981
0.00493891563832
0.0048482283362
0.00474940890838
0.00464264115066
0.00452817382927
0.00440632210574
0.00427747064507
0.00414207500178
0.0040006589537
0.00385380849923
0.00370216349036
0.00354640754466
0.00338725651496
0.00322544611542
0.00306171920349
0.0028968133374
0.00273144902746
0.00256631909423
0.00240207943692
0.00223934136751
0.00207866571545
0.0019205585304
0.00176546867246
0.00161378639798
0.0014658447354
0.00132191781616
0.0011822331256
0.00104694367037
0.000916229498928
0.000789985628171
0.000668794494159
0.00546262002071
0.00545483215858
0.00543622259913
0.0054077403858
0.00537090611407
0.0053260444106
0.00527292407129
0.005211408203
0.00514148182617
0.00506312486385
0.0049763000784
0.00488100243809
0.00477729084192
0.00466529696943
0.00454522980808
0.00441738141505
0.00428213042797
0.00413994130036
0.00399135964453
0.00383700468441
0.00367755920936
0.00351375750204
0.00334637169764
0.00317619731686
0.00300403855305
0.00283069396952
0.00265694309219
0.00248353435426
0.00231117472045
0.0021405211883
0.00197217427012
0.00180667354372
0.00164449471675
0.00148604976275
0.00133168415518
0.00118168964633
0.00103627248577
0.000895667114852
0.000759784663827
0.000629307795207
0.00555993146761
0.0055529435229
0.00553621913304
0.00551054147855
0.00547716949016
0.00543627183565
0.00538751108545
0.00533062693355
0.00526546126612
0.00519184815085
0.00510960756366
0.00501859374638
0.00491872733678
0.00481000727391
0.00469251888187
0.00456644267626
0.00443206074532
0.00428975851308
0.00414002230199
0.00398343328741
0.00382065829988
0.00365243772807
0.00347957115868
0.00330290137793
0.00312329755181
0.00294163825608
0.00275879507725
0.00257561736383
0.00239291861368
0.00221146489627
0.0020319654225
0.00185506563174
0.00168134200878
0.0015113007306
0.00134537312865
0.00118392898966
0.00102724019578
0.000875606960899
0.000728965931108
0.000588109198484
0.00565757871638
0.00565145687489
0.00563677673237
0.00561414871918
0.00558455921995
0.00554802010737
0.00550409047777
0.00545238690364
0.00539260578783
0.00532443092268
0.00524753299845
0.00516161617682
0.00506645052858
0.00496188705199
0.00484786954058
0.0047244470074
0.00459178341418
0.00445016285275
0.0042999900983
0.00414178707841
0.00397618533536
0.00380391481322
0.00362578938287
0.00344268989062
0.0032555454717
0.00306531402951
0.00287296268604
0.00267944900906
0.00248570369978
0.00229261528509
0.00210101718378
0.00191167753588
0.00172529123702
0.00154247631324
0.00136376726869
0.00118962824107
0.00102041195831
0.000856498036938
0.000697860680874
0.000545411931445
0.00575495511238
0.00574976134269
0.00573727503107
0.0057179284735
0.00569242715334
0.00566062759988
0.00562199020568
0.00557601112389
0.00552224131906
0.00546021249829
0.00538944180867
0.00530947611677
0.00521992421714
0.00512047495908
0.00501091311334
0.00489113560875
0.0047611653139
0.00462116025822
0.00447141823258
0.00431237670398
0.00414460812026
0.00396881053931
0.00378579407053
0.00359646366747
0.00340179918393
0.00320283355512
0.00300063014722
0.00279626023776
0.00259078153209
0.00238521855186
0.00218054537782
0.00197767151262
0.00177743018344
0.00158057181997
0.00138775439783
0.00119955605699
0.0010164286502
0.000838848008145
0.000666840729025
0.000501451647819
0.00585150688591
0.00584729788089
0.00583714291439
0.00582129239497
0.00580016515338
0.00577346602522
0.00574056364334
0.00570083870592
0.00565369955608
0.00559852668527
0.00553468228471
0.00546155119018
0.00537857247046
0.00528526037678
0.00518122410013
0.00506618813054
0.00494001035319
0.0048026961648
0.0046544079037
0.00449546947352
0.00432636559878
0.00414773570016
0.00396036236503
0.00376515507091
0.00356312976708
0.00335538540749
0.0031430784375
0.00292739649635
0.00270953243466
0.00249065975778
0.00227191032026
0.00205435519495
0.0018389883926
0.00162671630842
0.00141834433323
0.00121458792103
0.00101602029956
0.000823233874044
0.000636326233678
0.000456490482915
0.00594673328807
0.00594355952732
0.00593585911818
0.00592369840049
0.00590720649359
0.00588594238214
0.00585919177635
0.00582622733613
0.00578632025585
0.0057387037706
0.00568258666837
0.00561719013659
0.00554177787991
0.00545567950103
0.00535831394779
0.00524921380142
0.00512804809223
0.00499464169206
0.00484899061268
0.00469127229573
0.00452185035341
0.00434127300325
0.00415026524026
0.0039497147881
0.00374065257441
0.00352422848108
0.00330168366503
0.00307432066538
0.00284347279901
0.00261047415855
0.00237663142426
0.00214319879055
0.00191135585349
0.00168219196034
0.00145668778015
0.0012357239221
0.00102002174077
0.000810315241416
0.000606795881928
0.000410824388854
0.00604018633411
0.00603809131515
0.00603295246511
0.00602465147513
0.00601302730833
0.00599750091408
0.00597728582239
0.00595155622123
0.00591945448412
0.00588007354153
0.00583247374727
0.00577571437348
0.00570888156221
0.00563111342396
0.00554162659165
0.00543974426436
0.00532492355133
0.00519678064724
0.00505511251526
0.00489991411208
0.004731389799
0.00454995816624
0.00435624953315
0.00415109606612
0.00393551470777
0.00371068368776
0.00347791365022
0.00323861488743
0.00299426220555
0.00274635922568
0.0024964035617
0.00224585474868
0.0019961050172
0.00174845707786
0.00150409926289
0.0012641102398
0.00102939180198
0.000800850027995
0.000578798628559
0.000364789976713
0.00613147019289
0.00613048982427
0.00612800185135
0.00612370419207
0.0061171477687
0.00610762514318
0.00609428991039
0.00607622952704
0.00605246842938
0.00602196939339
0.00598365265703
0.00593642113972
0.00587918509859
0.0058108881309
0.00573053611205
0.0056372282316
0.00553018869638
0.00540879753948
0.00527261931245
0.00512142793737
0.00495522630237
0.00477425903549
0.00457901743807
0.0043702358543
0.00414887926793
0.00391612248584
0.00367332178074
0.00342198036147
0.00316370940543
0.00290018663425
0.00263311440303
0.00236417954594
0.00209501569399
0.0018271727796
0.00156208402598
0.00130106495406
0.00104523659433
0.000795714353055
0.000552969198349
0.000318775421863
0.00622024011966
0.00622040230529
0.00622063576129
0.00622045691058
0.00621913309337
0.00621583964366
0.00620968385859
0.00619967992799
0.00618474779236
0.00616373311238
0.00613542789905
0.0060985881287
0.00605195418206
0.00599427664168
0.00592434650052
0.00584102839325
0.00574329578393
0.00563026721802
0.00550124192238
0.00535573304501
0.00519349640283
0.00501455296579
0.00481920330375
0.00460803266328
0.00438190585366
0.00414195168234
0.00388953743026
0.00362623445309
0.00335377663287
0.0030740138399
0.00278886273661
0.0025002577584
0.00221010349081
0.00192023410459
0.00163237001199
0.00134810901526
0.00106883779881
0.000795926524187
0.000530046589704
0.000273232357072
0.00630620102074
0.00630752541743
0.00631053146613
0.00631455756711
0.00631859411354
0.00632171164759
0.00632298570837
0.00632137228618
0.0063157023478
0.00630472034139
0.00628710520133
0.00626147943231
0.00622642406757
0.00618050311625
0.00612229381461
0.00605042065168
0.00596359311016
0.00586064638033
0.00574058364294
0.00560261766742
0.00544620962316
0.00527110263535
0.00507734783911
0.00486532083762
0.0046357268645
0.00438959370345
0.00412825206195
0.00385330407743
0.00356658129721
0.00327009440231
0.00296597717065
0.00265642815353
0.00234365182696
0.00202980598888
0.00171694563408
0.00140700354922
0.00110168735765
0.000802677244689
0.000510898272327
0.000228693062524
0.00638910558062
0.00639160354157
0.00639741372894
0.00640570107803
0.00641518753649
0.00642485219128
0.00643375407677
0.00644080709763
0.00644477067406
0.00644430629135
0.00643799816888
0.00642435260157
0.00640180648036
0.00636874903692
0.00632355060686
0.00626459603786
0.00619032332181
0.00609926763554
0.00599010918724
0.00586172290479
0.00571322741266
0.00554403075096
0.00535386989516
0.00514284119
0.00491141916901
0.00466046165578
0.00439120002776
0.00410521429558
0.00380439391915
0.00349088612946
0.00316703451004
0.0028353115319
0.00249824764978
0.00215836468141
0.0018181042599
0.00147979458595
0.00114552964517
0.000817366641641
0.000496549857021
0.00018579104414
0.00646875207782
0.00647242675507
0.00648105320461
0.00649362829949
0.00650861567779
0.00652491692896
0.00654159002915
0.00655752374216
0.00657142466237
0.00658189167455
0.00658743529801
0.00658646657132
0.00657729796105
0.00655816114881
0.0065272327667
0.00648266526734
0.00642262475345
0.0063453363814
0.00624913637042
0.00613252849541
0.00599424289565
0.00583329427033
0.00564903621385
0.00544120809736
0.00520997084513
0.00495592850916
0.00468013302757
0.0043840708381
0.00406963093624
0.00373905572635
0.00339487677639
0.00303983966552
0.00267682074647
0.00230874505208
0.00193849639983
0.00156886671976
0.00120241305461
0.000841650552979
0.00048822328254
0.000145289044713
0.00654498184217
0.00654982844747
0.00656126439465
0.00657812461006
0.00659862583862
0.00662160637621
0.00664613857006
0.00667110321848
0.0066951738117
0.0067169084309
0.00673476726627
0.00674709016827
0.0067520891939
0.00674786112465
0.00673240849443
0.00670366612413
0.00665953583211
0.00659793110222
0.00651683089943
0.00641434123255
0.00628876233105
0.0061386588888
0.00596292981778
0.00576087333597
0.00553224295345
0.00527728977434
0.0049967872486
0.00469203509408
0.0043648407908
0.00401747827375
0.00365262550056
0.00327328435038
0.00288268634007
0.002484194087
0.00208119063251
0.00167700716464
0.00127475278284
0.000877497630117
0.00048738440274
0.0001081139387
0.00661767650274
0.00662368269439
0.00663790336555
0.00665901808431
0.00668500914937
0.00671466574535
0.00674708950989
0.00678117043704
0.00681556896544
0.0068488252276
0.00687937405976
0.00690551090936
0.00692537519237
0.00693695649148
0.00693810936321
0.00692657343739
0.00690000282185
0.00685600723294
0.00679220499361
0.00670628681185
0.00659608914827
0.00645967486106
0.00629541785399
0.00610208734041
0.00587892641749
0.00562571940029
0.00534284209974
0.00503129015846
0.00469268130326
0.00432922960386
0.00394369132036
0.00353928523072
0.00311959014856
0.00268843078137
0.00224974420177
0.00180748212755
0.0013654072853
0.000927260422481
0.000495803613192
7.54029312654e-05
0.00668675498934
0.00669390137598
0.00671086511842
0.00673617735953
0.00676759908149
0.00680388418985
0.00684417784598
0.00688739581428
0.00693220553295
0.00697715234822
0.00702067185172
0.00706104376576
0.00709636581398
0.00712455264845
0.00714334300696
0.00715031161495
0.00714289072801
0.00711840498946
0.00707412017802
0.00700730589979
0.00691531167831
0.00679565522786
0.0066461201307
0.00646485871104
0.00625049465163
0.00600221863044
0.00571986987936
0.00540399624379
0.00505588636135
0.00467756897316
0.00427177659452
0.00384187424302
0.00339175479418
0.00292571207165
0.00244828428684
0.00196412728379
0.00147777111443
0.000993763197814
0.000515631911682
4.85619893554e-05
0.00675217044458
0.00676043117203
0.00678008082367
0.00680950917911
0.00684626949037
0.00688909364983
0.006937183477
0.00698949628698
0.00704472592119
0.00710144598715
0.00715811922869
0.00721303960803
0.00726429641937
0.00730976540858
0.00734710721217
0.00737376927023
0.00738699735997
0.00738386105591
0.00736129477316
0.00731615512279
0.00724529552041
0.00714565785171
0.00701437964601
0.00684891339224
0.00664715268353
0.00640755830483
0.00612927564359
0.00581223417303
0.00545721945648
0.00506590932035
0.00464086780648
0.00418549408535
0.00370392545458
0.00320090421259
0.00268160049507
0.00215145462722
0.00161588741367
0.00108041094045
0.000549497346503
2.93421951515e-05
0.00681390700887
0.00682325041773
0.00684551482556
0.00687895573573
0.00692093240458
0.0069701671639
0.00702593042663
0.00708723555953
0.00715282127232
0.00722131164248
0.0072912227244
0.00736089301933
0.00742843813808
0.00749173380709
0.00754840480356
0.00759581567486
0.00763107008927
0.00765102420218
0.00765231612854
0.0076314135721
0.00758468164925
0.00750847252849
0.00739923685378
0.0072536550384
0.00706878436273
0.00684221517763
0.00657222732827
0.00625793558691
0.00589941184402
0.00549777169269
0.00505521412218
0.00457500691958
0.0040614120106
0.00351955796654
0.00295524896016
0.00237477767701
0.00178458384297
0.0011913240144
0.000600626410732
1.99370656163e-05
0.00687197663203
0.00688236595402
0.00690716162291
0.00694449180225
0.00699153545631
0.00704701685857
0.00711028545021
0.00718042374871
0.0072562323114
0.00733640668417
0.0074195413343
0.00750404925586
0.00758810756189
0.00766963257434
0.00774625897762
0.00781531837258
0.00787382500123
0.00791847437253
0.00794565774676
0.00795149520164
0.00793189102707
0.00788261466448
0.00779940934661
0.00767812873764
0.00751489936392
0.00730630386568
0.00704957648084
0.00674279909095
0.00638508302636
0.00597672029157
0.00551928753882
0.00501568862754
0.0044701235553
0.00388798508545
0.00327566759606
0.00264035717248
0.00198963632451
0.00133150482876
0.000672997857905
2.31090386261e-05
0.00692641586626
0.00693780994757
0.00696504273944
0.00700612178157
0.00705805916913
0.00711959151658
0.00719015622638
0.00726891630335
0.00735474945621
0.00744644188281
0.00754269004578
0.00764201010704
0.00774267538688
0.00784268400918
0.00793972840812
0.00803116151216
0.00811396770789
0.00818474493182
0.00823970090667
0.00827466728359
0.0082851365035
0.008266326683
0.00821327894792
0.0081209902594
0.00798458264025
0.00779950636703
0.00756177088101
0.00726819225433
0.00691664155973
0.00650627443842
0.00603771932816
0.00551320271745
0.00493658961034
0.0043133320768
0.00365030096093
0.00295556896988
0.00223796531986
0.00150704362509
0.000771536762578
4.23517942895e-05
0.00697728278219
0.00698963680583
0.00701920367208
0.00706387666047
0.00712051401624
0.00718787394025
0.00726548905024
0.00735261239845
0.00744821206982
0.00755118204268
0.00766034215844
0.00777433853887
0.00789157389596
0.00801016870492
0.00812792175011
0.00824226412402
0.0083502152745
0.00844834725176
0.00853276044811
0.00859907475682
0.00864244227365
0.00865758834544
0.00863888792718
0.00858048349797
0.00847644907558
0.00832100220585
0.00810876126472
0.00783504007246
0.00749616504557
0.00708979367112
0.00661520706066
0.00607354643877
0.00546796070777
0.00480364506735
0.00408773178479
0.00332909498132
0.0025378701254
0.00172537243665
0.000902360666519
8.21010528929e-05
0.00702465395187
0.0070379201506
0.0070697108336
0.00711781099473
0.0071789374537
0.00725187803374
0.00733626624137
0.00743145273091
0.00753650705309
0.00765044561549
0.00777223051749
0.00790066197291
0.00803430292249
0.00817143493977
0.00831001090744
0.00844759783735
0.00858131835565
0.00870779698084
0.00882311384199
0.00892277002828
0.00900167103483
0.00905413661845
0.00907394609833
0.00905442854945
0.00898860688843
0.0088694027396
0.00868990539769
0.00844370206119
0.0081252588699
0.00773033296801
0.00725638579639
0.00670296059848
0.00607197845631
0.00536791723376
0.0045978134996
0.00377113687655
0.00289930640059
0.0019955780007
0.00107309140868
0.000148007636987
0.00706862162435
0.00708274996135
0.00711664865386
0.00716799990149
0.00723339085131
0.00731164581238
0.00740250320937
0.00750541693442
0.00761956671737
0.00774410349662
0.00787814753817
0.00802067420668
0.00817043430333
0.00832590631397
0.00848524276944
0.00864620328383
0.00880608288121
0.00896164092354
0.00910903274274
0.00924374740977
0.00936055834302
0.00945349551593
0.0095158499807
0.00954022303057
0.009518633203
0.00944269418632
0.00930387403496
0.00909384128435
0.00880489511232
0.00843046574312
0.00796565742541
0.00740779294272
0.00675690300287
0.00601610651174
0.00519179509379
0.00429364961406
0.00333421220204
0.00232878635448
0.00129325138865
0.000247293396242
0.00710929102724
0.00712422983955
0.00716011675594
0.00721453617393
0.00728395650545
0.00736724427288
0.00746424538551
0.00757452057268
0.00769736616074
0.00783207695306
0.00797794422074
0.00813413593659
0.00829961460943
0.00847308758488
0.00865294892501
0.00883720476186
0.00902339037787
0.00920848368335
0.00938881576044
0.00955998112356
0.00971675345888
0.00985301558955
0.00996171492143
0.010034858617
0.0100635656004
0.0100381941962
0.0099485644171
0.00978429075637
0.00953523466052
0.00919207430014
0.00874697243484
0.00819430441183
0.00753138266367
0.00675910740948
0.00588242449526
0.00491058846739
0.00385688614431
0.00273863413497
0.00157476755334
0.000389216844376
0.00714677790189
0.00716247448917
0.00720022734661
0.00725752748385
0.00733073465676
0.00741876231383
0.00752156497482
0.00763881192707
0.00776992012657
0.00791433492077
0.00807152812002
0.00824087400216
0.00842156629127
0.00861256845834
0.00881255322547
0.00901982256209
0.00923221633083
0.00944701293466
0.00966082135546
0.0098694654842
0.0100678653169
0.0102499223842
0.0104084201837
0.0105349544755
0.0106199128206
0.0106525273915
0.0106210281121
0.010512924198
0.0103154384505
0.0100161095468
0.00960356035145
0.00906840693764
0.00840424814152
0.00760865522626
0.0066840106399
0.00563815707884
0.00448441883581
0.00324184315164
0.00193261350272
0.000585685214845
0.00718120619715
0.00719760735326
0.00723710273457
0.00729709377173
0.00737384067225
0.00746630764149
0.00757455771994
0.00769836855063
0.0078372795718
0.0079908906676
0.00815886052065
0.00834077940301
0.00853608717262
0.0087440254492
0.00896357691224
0.00919338272348
0.0094316458378
0.00967602251404
0.00992349944456
0.010170255745
0.0104115120868
0.0106413723436
0.0108526664569
0.01103680817
0.0111836875251
0.0112816249129
0.0113174207567
0.0112765404078
0.0111434762993
0.0109023255514
0.0105376075304
0.0100353227008
0.00938421101948
0.00857713552085
0.0076124154636
0.00649503575902
0.00523717296759
0.00385891604722
0.00238562842338
0.000852065133116
0.00721270601314
0.00722975848723
0.00727087309353
0.00733336477686
0.00741340231203
0.00751000382604
0.00762333963056
0.00775329378836
0.00789952793888
0.00806179806937
0.00823995283749
0.00843380428898
0.00864304854024
0.00886722174563
0.00910564138466
0.00935732386968
0.00962088618678
0.00989443236923
0.0101754206107
0.0104605079232
0.0107453722709
0.0110245143074
0.0112910441721
0.0115364638625
0.0117504626997
0.0119207527519
0.0120329816379
0.0120707718405
0.0120159453987
0.0118489984889
0.011549885712
0.0110991569104
0.0104794454508
0.00967726491473
0.00868493654103
0.00750255628994
0.00613929815001
0.00461496921362
0.00295756067796
0.00120825883351
0.00724141171383
0.00725906259966
0.00730167438166
0.00736647779056
0.00744955721489
0.00754998743898
0.00766804384407
0.00780371323426
0.00795677734398
0.00812714751431
0.00831486251066
0.00851995803236
0.00874239187272
0.0089820053338
0.00923846854225
0.00951120115106
0.00979927591013
0.0101013048162
0.0104153016694
0.0107385160085
0.0110672353082
0.0113965540345
0.0117201103959
0.0120297961877
0.0123154522617
0.0125645722117
0.0127620506989
0.0128900295082
0.0129279133371
0.0128526450685
0.0126393404824
0.0122623815286
0.0116970322894
0.0109216038879
0.00992002755348
0.00868477186312
0.00721925079732
0.005540714414
0.00367839766842
0.00168015119239
0.00726746028688
0.00728565732987
0.0073296465163
0.00739657557504
0.00748245051766
0.00758640541065
0.00770881756354
0.00784977129851
0.00800916467334
0.00818706166913
0.00838368843707
0.00859930262362
0.00883412452428
0.00908830545764
0.00936187896417
0.00965468721545
0.00996629026718
0.0102958565068
0.0106420267802
0.0110027449882
0.0113750493956
0.011754819077
0.0121364711069
0.0125126072264
0.0128736145101
0.0132072344628
0.0134981294473
0.0137274963204
0.0138728036596
0.0139077608023
0.0138026570982
0.0135252347805
0.0130422492804
0.0123218571695
0.0113367880805
0.0100683457385
0.00851026295229
0.00667358584457
0.00458604864197
0.00230154745224
0.00729098986613
0.00730968168461
0.0073549317128
0.00742380451618
0.00751223272039
0.00761941253253
0.00774581921068
0.00789162784523
0.00805684777288
0.00824169111809
0.00844656619584
0.00867194751608
0.00891831446939
0.00918612776469
0.00947578804079
0.00978757048124
0.0101215430589
0.0104774659614
0.0108546632913
0.0112518584246
0.0116669645277
0.0120968209264
0.0125368652711
0.0129807325481
0.0134197755397
0.0138425086192
0.0142339902175
0.014575180604
0.0148423436291
0.0150066049166
0.0150338310025
0.0148850543009
0.0145177005153
0.0138879185645
0.0129541398121
0.011682151689
0.0100506676756
0.00805898617874
0.00572846710621
0.0031168230482
0.00731213848469
0.00733127469642
0.00737767307442
0.0074483129426
0.00753905770965
0.00764916921807
0.00777921572761
0.00792945504409
0.00810000171092
0.00829121007998
0.00850366310521
0.00873804416054
0.00899508443842
0.00927554828515
0.00958020044151
0.00990975086474
0.0102647850544
0.0106456765354
0.0110524720486
0.011484739573
0.0119413688596
0.0124203116795
0.0129182465904
0.0134301515219
0.0139487674688
0.0144639400769
0.0149618345811
0.0154240379003
0.0158265929439
0.0161390610587
0.0163237787921
0.0163355734863
0.0161222900339
0.015626617351
0.0147895852221
0.0135564311599
0.0118839197944
0.00975156441706
0.00716627122933
0.00418447399405
0.00733104297374
0.00735057422159
0.00739801334081
0.0074702496662
0.00756308103613
0.00767583944267
0.00780918013678
0.0079634343787
0.00813881526011
0.008335812196
0.00855517334273
0.00879778035387
0.00906460557683
0.00935670663551
0.0096752031326
0.0100212333835