/*--------------------------------*- C++ -*----------------------------------*\
  =========                 |
  \\      /  F ield         | OpenFOAM: The Open Source CFD Toolbox
   \\    /   O peration     | Website:  https://openfoam.org
    \\  /    A nd           | Version:  7
     \\/     M anipulation  |
\*---------------------------------------------------------------------------*/
FoamFile
{
    version     2.0;
    format      ascii;
    class       volScalarField;
    location    "420";
    object      p;
}
// * * * * * * * * * * * * * * * * * * * * * * * * * * * * * * * * * * * * * //

dimensions      [0 2 -2 0 0 0 0];

internalField   nonuniform List<scalar> 
35666
(
0.00457830392915
0.00456602380071
0.00453684694892
0.00449286198233
0.00443739240028
0.00437198421287
0.00429731116165
0.00421419915484
0.00412366412244
0.0040266750977
0.00392409468657
0.003816728611
0.0037053547099
0.00359071840364
0.00347352397368
0.00335443289302
0.00323406437845
0.00311299490371
0.00299175690206
0.00287083798963
0.00275068084189
0.00263168355343
0.00251420048079
0.00239854335756
0.00228498302215
0.0021737511697
0.00206504277353
0.001959018208
0.00185580610901
0.00175550559018
0.0016581893074
0.0015639055724
0.00147268144154
0.00138452455228
0.00129942608939
0.00121736230486
0.00113829719125
0.0010621838971
0.000988966135757
0.00091858155072
0.00459512681935
0.00458286342655
0.00455378102488
0.00450994300263
0.00445463906568
0.00438939770809
0.00431487906239
0.00423189351586
0.00414144198125
0.00404448073559
0.00394186198889
0.00383438305264
0.00372281559253
0.00360790100415
0.00349034183023
0.00337079971872
0.00324989600602
0.00312821077658
0.00300628156397
0.00288460206092
0.00276362198372
0.00264374692431
0.00252533920946
0.00240871855787
0.00229416383903
0.00218191446722
0.00207217286611
0.00196510636034
0.00186085003379
0.00175950887752
0.00166116078458
0.00156585878898
0.00147363391393
0.00138449738385
0.00129844311267
0.00121545004481
0.00113548348369
0.00105849950351
0.000984438707096
0.000913250936395
0.00462694422229
0.0046147620106
0.00458588594397
0.00454234723003
0.00448738364315
0.00442248725349
0.00434829030446
0.00426557487603
0.00417531374551
0.0040784382329
0.00397577977189
0.00386811913958
0.0037562155296
0.00364080216818
0.00352257746823
0.00340220301033
0.00328030348125
0.00315746566703
0.0030342362802
0.00291112065237
0.00278858154526
0.00266703914596
0.00254687073999
0.00242841176123
0.00231195626392
0.0021977590208
0.00208603659388
0.00197697025385
0.00187070734507
0.00176736478048
0.00166703041988
0.00156976692384
0.00147561287376
0.00138458687745
0.00129668806288
0.00121190088529
0.00113019316432
0.00105152682976
0.000975836333631
0.000903095962163
0.00467215112958
0.00466010905422
0.00463155344321
0.00458847275838
0.00453403521597
0.00446967951788
0.00439599636011
0.0043137266677
0.00422380199139
0.00412711638926
0.00402447002894
0.00391661844027
0.00380430153642
0.00368823923011
0.00356912272616
0.00344761207708
0.00332433586077
0.00319988935255
0.00307483200729
0.00294968509539
0.00282493021396
0.00270100806022
0.00257831801482
0.00245721787608
0.00233802455673
0.00222101478224
0.00210642680111
0.00199446180148
0.00188528635239
0.00177903423626
0.00167580937989
0.0015756878277
0.00147872086961
0.00138493697976
0.00129434471399
0.00120693538908
0.00112268252309
0.00104155482115
0.000963480524308
0.000888466487237
0.00472918604324
0.00471733509308
0.00468922135536
0.00464677627576
0.00459307614103
0.00452948969481
0.00445655326644
0.0043749536994
0.00428556804936
0.00418924063119
0.00408672933851
0.00397875501144
0.00386603036435
0.00374925580923
0.00362911085565
0.00350625143308
0.00338130903529
0.00325488824314
0.00312756338702
0.00299987535151
0.00287232912104
0.00274539167163
0.00261949059537
0.00249501303918
0.00237230559501
0.00225167435809
0.00213338603941
0.00201766891804
0.00190471496177
0.00179468132234
0.00168769320118
0.00158384556075
0.00148320647304
0.00138581880735
0.00129170341527
0.0012008620636
0.00111327547884
0.00102892276006
0.000947723669033
0.000869727893853
0.00479656909177
0.00478496794991
0.00475743456667
0.00471582743863
0.00466310716567
0.00460055689164
0.0045286468258
0.00444799718956
0.00435941707555
0.00426368821662
0.00416151450553
0.00405357164803
0.00394053596557
0.0038230807147
0.0037018676724
0.00357754440781
0.00345074281046
0.00332207603651
0.00319213414773
0.00306148009446
0.00293064595139
0.00280012993783
0.00267039361053
0.00254186009972
0.00241491256638
0.00228989391097
0.00216710648577
0.00204681315386
0.00192923802347
0.00181456861115
0.00170295721824
0.00159452389562
0.00148935805636
0.00138752219486
0.00128905263173
0.0011939659722
0.00110225167187
0.00101390361418
0.000928830975025
0.000847136627167
0.00487289866317
0.00486161237127
0.00483481188495
0.00479426733977
0.00474280002408
0.00468159245207
0.00461103770571
0.00453167699882
0.00444423787619
0.00434942606605
0.00424787900723
0.00414021561099
0.00402706524864
0.0039090646171
0.00378684998504
0.00366105434153
0.00353230567445
0.00340122308343
0.00326841172153
0.00313445748824
0.002999922278
0.0028653394213
0.00273120985494
0.00259799870567
0.00246613290683
0.00233599934278
0.00220794406534
0.00208227195978
0.0019592473875
0.00183909515052
0.0017220022091
0.00160811961007
0.00149756478437
0.00139042438655
0.00128675582348
0.0011865937014
0.00108994064912
0.00099680750489
0.00090709464369
0.000820964705141
0.0049568472586
0.00494594676905
0.00492004617663
0.00488081205808
0.00483090259961
0.00477138512385
0.00470256527735
0.00462489339472
0.00453900183333
0.00444550666197
0.00434496560585
0.00423792812807
0.00412496450748
0.00400666381478
0.00388362690926
0.00375646398525
0.00362579251937
0.00349223298571
0.00335640284839
0.00321891031992
0.00308034815564
0.00294128780811
0.00280227390473
0.00266381947281
0.00252640189091
0.00239045981588
0.00225639096831
0.00212455086498
0.00199525239493
0.0018687661669
0.00174532157058
0.00162510838254
0.00150827877749
0.00139495013252
0.00128520632818
0.0011791051792
0.00107666635426
0.000977921998755
0.000882764525489
0.000791424379195
0.00504715892745
0.00503672050081
0.00501189964508
0.00497424437949
0.00492622610084
0.00486878336248
0.00480212522755
0.0047266000249
0.00464273169893
0.00455103284242
0.00445196780102
0.00434600285795
0.00423363574745
0.00411539492201
0.00399183392801
0.00386352949329
0.00373107966006
0.00359509913483
0.00345621273364
0.00331504807253
0.00317222814492
0.00302836387351
0.00288404697818
0.00273984338852
0.00259628749418
0.00245387734855
0.0023130709128
0.00217428338781
0.00203788556251
0.00190420321053
0.00177351729179
0.00164606509379
0.00152204168729
0.00140160279161
0.00128486546586
0.00117191696126
0.00106279892696
0.000957570012949
0.000856116554346
0.000758744762029
0.00514264766111
0.00513275169742
0.00510920070721
0.00507340954859
0.00502763987519
0.00497268921964
0.00490866233306
0.00483579549546
0.00475449162996
0.00466514635855
0.00456811668817
0.00446377134522
0.00435252071753
0.00423481799839
0.00411115526835
0.00398206272909
0.00384810728666
0.00370988805319
0.00356802941774
0.00342317301123
0.00327596906067
0.00312706745257
0.00297710880191
0.00282671594982
0.00267648619794
0.0025269845189
0.00237873790606
0.00223223093258
0.00208790258121
0.0019461442729
0.0018072990437
0.00167166179995
0.00153948022327
0.00141095729377
0.00128625151659
0.00116548687088
0.00104873340199
0.000936082110949
0.000827416739276
0.000723126821319
0.00524219661395
0.00523292629666
0.00521084230804
0.00517721260311
0.00513406723674
0.00508205220694
0.00502116191318
0.00495151198454
0.00487337284167
0.00478701031134
0.00469266036784
0.00459057938004
0.00448107469507
0.00436450799401
0.00424129372652
0.00411189991406
0.00397684781016
0.00383670797025
0.00369209348476
0.00354365150848
0.00339205370329
0.00323798588807
0.00308213735089
0.00292519028721
0.00276780980933
0.00261063486023
0.00245427028626
0.00229928025855
0.00214618311723
0.0019954477033
0.00184749104936
0.0017026775236
0.00156131877741
0.00142367584109
0.00128995855012
0.00116033668276
0.00103491653018
0.000913828747643
0.000796959353435
0.000684789122491
0.0053447582322
0.00533619787233
0.00531578133525
0.00528461693802
0.00524448303004
0.00519586556663
0.00513864462583
0.00507280840341
0.00499848491407
0.00491579858387
0.00482485133796
0.00472577252595
0.00461875016542
0.00450403699118
0.00438195172997
0.00425288213168
0.00411728626725
0.00397568986872
0.00382868028301
0.00367689814479
0.00352102729
0.00336178330897
0.00319990121503
0.00303612282602
0.00287118438897
0.00270580492033
0.00254067564075
0.00237645079783
0.00221374008042
0.00205310272783
0.00189504331727
0.00174000930572
0.00158838971086
0.00144051639065
0.00129666249116
0.00115705453703
0.00102184482476
0.000891212483258
0.000765052453672
0.000643945164522
0.00544935482755
0.00544158820352
0.00542303881279
0.00539464409033
0.00535791267191
0.00531316440083
0.0052601633193
0.00519876564235
0.0051289491033
0.00505068686831
0.00496393506502
0.00486868202285
0.00476498014463
0.0046529550012
0.00453280999974
0.00440483222659
0.00426939611824
0.00412696280036
0.00397807556738
0.00382335238997
0.00366347594855
0.00349918155142
0.00333124349944
0.00316046053988
0.00298764107614
0.00281358872841
0.0026390887793
0.00246489595295
0.00229172384895
0.00212023628465
0.00195104057401
0.00178468296126
0.00162164549394
0.00146234611069
0.00130713569436
0.00115631093383
0.00101008219507
0.000868688014391
0.000732041064258
0.000600830804794
0.00555507959846
0.0055481881475
0.00553170076423
0.00550637431729
0.00547343241861
0.00543302528842
0.00538480178835
0.00532848409545
0.00526389432325
0.00519084677738
0.00510914193273
0.00501861440309
0.00491916533375
0.00481077476271
0.00469351015879
0.00456753566112
0.00443311885319
0.00429063297174
0.00414055481439
0.00398345901616
0.00382000903018
0.00365094515589
0.00347707014073
0.00329923307318
0.00311831230895
0.00293519817774
0.00275077617016
0.00256591122242
0.00238143361819
0.00219812689497
0.0020167179562
0.00183786968378
0.00166217539759
0.0014901571411
0.00132226089049
0.00115886976811
0.00100026708939
0.000846764213386
0.000698302909962
0.00055569244708
0.00566109759484
0.00565515876132
0.00564091931309
0.00561894782819
0.00559017047341
0.00555456720297
0.00551167513925
0.00546108320919
0.00540245543094
0.00533544248709
0.00525968179898
0.0051748436147
0.00508066353602
0.00497695831282
0.00486363851742
0.00474072173081
0.00460834310818
0.00446676137105
0.0043163601815
0.00415764527358
0.00399123748154
0.00381786185949
0.00363833337931
0.00345353988798
0.00326442314431
0.00307195879737
0.00287713617313
0.00268093870932
0.00248432574468
0.00228821630683
0.00209347523349
0.00190090217066
0.00171122277196
0.00152508447432
0.00134304915441
0.00116560620022
0.00099313023377
0.000826022122108
0.000664267333985
0.000508807821244
0.00576664666088
0.00576173223551
0.00574991394414
0.00573156624984
0.00570730877106
0.00567695333865
0.00563993153441
0.00559570272696
0.00554377364276
0.00548362978951
0.00541474125844
0.00533660596922
0.00524878193416
0.00515090628471
0.00504271230073
0.004924046823
0.00479488528771
0.00465534234672
0.00450567782326
0.00434629794083
0.00417775170047
0.00400072239445
0.0038160145659
0.00362453702252
0.00342728270316
0.0032253063416
0.00301970095993
0.00281157421952
0.00260202562427
0.00239212543734
0.00218289595978
0.00197529589717
0.00177020733779
0.00156842800315
0.00137066052051
0.00117752453586
0.000989508552791
0.000807123556243
0.000630417188579
0.000460479782252
0.00587103790507
0.005867212644
0.00585797252501
0.00584349423445
0.00582408502777
0.00579939366037
0.00576875493203
0.00573150543113
0.00568699878053
0.0056345574386
0.00557348344199
0.00550309789545
0.00542277216656
0.00533194990733
0.00523016820696
0.00511707946368
0.00499247123821
0.00485628234547
0.00470861442382
0.00454973861079
0.00438009676166
0.00420029692854
0.00401110312668
0.00381341979254
0.00360827162555
0.00339677976242
0.00318013540388
0.00295957214661
0.0027363382387
0.00251166999017
0.00228676723623
0.00206277200044
0.00184074999253
0.0016216781695
0.00140642941065
0.00119578269558
0.000990368145224
0.000790832545464
0.00059730911435
0.000411056215993
0.00597365580161
0.00597097614429
0.00596445208271
0.00595406082713
0.00593979494542
0.00592114777398
0.00589736862641
0.0058676809908
0.00583129316363
0.00578737048602
0.00573505030217
0.00567347640485
0.00560182839075
0.00551934593236
0.0054253537639
0.00531928771349
0.00520071966762
0.00506937958992
0.00492517373588
0.00476819803135
0.00459874577868
0.00441730889935
0.00422457241527
0.004021402192
0.00380882641376
0.00358801159429
0.00336023427411
0.00312684976247
0.00288925943441
0.00264887809673
0.00240710277447
0.00216528441125
0.00192470252849
0.00168654653091
0.00145189436477
0.00122171929205
0.000996827034832
0.000778031990785
0.000565582357137
0.000360929314831
0.00607395757179
0.00607247071258
0.00606877900958
0.00606266057276
0.00605379419416
0.00604152797615
0.0060250391727
0.00600345070822
0.00597583674043
0.00594121544803
0.00589856709595
0.00584686228972
0.00578508828611
0.00571227475981
0.00562752172935
0.00553002936583
0.00541912773485
0.00529430511187
0.00515523341736
0.00500178956243
0.00483407117679
0.00465240563797
0.00445735145118
0.00424969160567
0.00403041889067
0.00380071372655
0.00356191547507
0.00331548864607
0.00306298564446
0.00280600795486
0.00254616747049
0.00228505005899
0.00202418174912
0.00176500204494
0.00150883463161
0.00125688899088
0.00101018796043
0.000769753151665
0.000535984772452
0.000310558554154
0.00617147202322
0.00617121514425
0.00617044877386
0.00616875405324
0.00616550012861
0.0061599021064
0.00615108053107
0.00613807272868
0.00611983324478
0.0060952468817
0.00606314893133
0.0060223457815
0.00597163709567
0.00590984179032
0.00583582795566
0.0057485453565
0.00564705948911
0.00553058582078
0.00539852289875
0.00525048238271
0.00508631435424
0.00490612602705
0.00471029252396
0.00449945852201
0.00427453026378
0.00403665787845
0.00378720868454
0.00352773265617
0.00325992179283
0.00298556547426
0.00270650399418
0.00242458286789
0.00214160894381
0.00185931360152
0.00157931327205
0.00130310347543
0.00103197467446
0.000767204711165
0.000509392222381
0.000260478117341
0.00626579760181
0.00626679748049
0.00626902490117
0.00627186791267
0.00627439293067
0.00627569612157
0.00627485803079
0.00627084751513
0.00626251690658
0.00624863513992
0.00622790893419
0.00619899456132
0.00616051445727
0.00611108219374
0.00604933283399
0.00597395694843
0.00588373769764
0.00577759043032
0.00565460303461
0.00551407520776
0.00535555426054
0.00517886544524
0.00498413449325
0.00477180065657
0.0045426187258
0.00429764936218
0.00403823764428
0.00376598065753
0.00348268557544
0.0031903204633
0.00289096024909
0.00258673112441
0.0022797549773
0.00197210027312
0.0016657296222
0.00136248334395
0.00106398065997
0.000771816378033
0.000486845877987
0.000211327627176
0.00635659989359
0.00635887268535
0.00636413737581
0.00637159415009
0.00638001621042
0.00638839607964
0.00639579203985
0.00640112315753
0.00640315948471
0.00640057479573
0.00639196779085
0.00637586366171
0.0063507239511
0.00631496888044
0.00626700661842
0.00620526692386
0.00612823981101
0.00603451895796
0.00592284858185
0.00579217144102
0.00564167580924
0.00547083859361
0.00527946205941
0.00506770124843
0.00483607990153
0.00458549294014
0.00431719463371
0.00403277229949
0.00373410654985
0.00342331996908
0.0031027168732
0.00277471781535
0.00244179121052
0.00210638961251
0.00177088129784
0.00143751972418
0.0011083263071
0.00078528762644
0.00046958874794
0.000163873065334
0.00644360842276
0.00644715979032
0.0064554803144
0.00646758880845
0.00648197684511
0.00649754952782
0.00651336100273
0.00652830035914
0.00654107714552
0.00655029346004
0.0065544641053
0.00655200699256
0.0065412448797
0.00652042364389
0.0064877384658
0.00644136521871
0.00637949844294
0.00630039676688
0.00620243441436
0.0060841570193
0.00594433917772
0.00578204119297
0.00559666151007
0.00538798158327
0.00515619950292
0.00490194956777
0.00462630529454
0.0043307647102
0.00401721769173
0.00368789668925
0.00334531306863
0.00299218307493
0.00263134627397
0.00226568537074
0.00189803853354
0.00153115059319
0.00116753256606
0.000809654644719
0.000459122901637
0.000119052495114
0.00652661301539
0.00653143840548
0.00654280911376
0.00655956992434
0.00657994416105
0.00660276607031
0.00662710380742
0.00665183673072
0.00667563698362
0.00669706046229
0.00671456524819
0.00672648987585
0.00673104599661
0.006726330975
0.00671034921989
0.00668103891246
0.00663630697362
0.00657407371679
0.0064923267179
0.00638918210815
0.00626295151691
0.0061122117526
0.00593587399903
0.00573324813177
0.00550409798804
0.00524868294327
0.00496778206918
0.00466269770427
0.00433523678875
0.00398766977087
0.00362266856859
0.00324322717107
0.00285256811438
0.00245404480876
0.00205103163222
0.00164685220835
0.00124460981563
0.000847370078361
0.000457273833303
7.8019534893e-05
0.00660545963924
0.00661154484318
0.00662593699346
0.00664731492129
0.0066736483257
0.00670371719055
0.0067366212382
0.00677125031159
0.00680626276931
0.00684019513329
0.00687147809715
0.00689840220619
0.00691910049997
0.006931554243
0.00693360742784
0.00692298667866
0.00689733029772
0.0068542292551
0.00679127997692
0.00670614822227
0.00659664251492
0.00646079521683
0.00629694767539
0.00610383533698
0.00588066734704
0.00562719518394
0.00534376447976
0.00503134495405
0.00469153442511
0.00432653465186
0.00393909860843
0.00353245178687
0.00311019023303
0.00267616622704
0.00223435398665
0.00178875045764
0.00134316966572
0.000901407694072
0.00046628151987
4.22161094226e-05
0.00668004599369
0.00668736780132
0.00670473116193
0.0067306573793
0.00676287811481
0.00680013519752
0.00684157656292
0.00688612205082
0.00693243979819
0.00697907421997
0.00702445934381
0.00706687155686
0.00710440184223
0.00713495348629
0.00715624826889
0.00716583718939
0.00716112093558
0.00713938363056
0.00709784087709
0.00703370191173
0.00694424580421
0.0068269102749
0.00667939077975
0.00649974548374
0.00628650089714
0.00603875132503
0.00575624485646
0.00543944841727
0.00508958498852
0.00470863774356
0.00429931784784
0.00386499614356
0.00340959999512
0.00293748607363
0.00245328163583
0.00196175397776
0.00146756124327
0.000975390788055
0.000488910146277
1.34538312788e-05
0.00675031679665
0.0067588438532
0.00677910856946
0.00680948339301
0.00684747799499
0.00689181143992
0.00694169511685
0.00699609726717
0.00705371854149
0.00711313825347
0.00717282482495
0.00723107582541
0.00728597957393
0.00733540428351
0.00737699455426
0.00740817114144
0.00742614002501
0.00742791560214
0.00741035953528
0.00737023651345
0.00730428777617
0.00720932284579
0.00708232790825
0.00692058798573
0.00672181759806
0.00648429317043
0.00620697850254
0.00588963356113
0.00553289669366
0.00513833105795
0.00470842793362
0.00424656329492
0.0037569056571
0.00324428454174
0.00271401090725
0.00217171375793
0.00162304010718
0.00107375687226
0.000528595757457
-5.96586081154e-06
0.00681625902251
0.00682595271433
0.00684903147763
0.00688372749534
0.00692734472287
0.00697859373921
0.00703676301411
0.00710088594159
0.00716971708599
0.00724189652786
0.00731595763825
0.00739025479002
0.00746291472136
0.00753181680356
0.00759457917564
0.00764854597452
0.00769078286231
0.00771808622367
0.00772700864939
0.00771390271454
0.00767498581196
0.00760642783713
0.00750446253588
0.00736552091481
0.00718638333936
0.00696434389807
0.00669737818182
0.00638430324792
0.00602491661986
0.00562010103916
0.00517188218066
0.00468343010412
0.00415899700798
0.00360379674339
0.00302381418187
0.00242561194662
0.00181597423008
0.00120196234278
0.00058963040227
-1.3105853542e-05
0.00687789705043
0.00688871251207
0.00691450282831
0.00695336836355
0.00700242345066
0.00706038323255
0.00712662494303
0.0072002619591
0.0072801222018
0.00736493064156
0.00745331464379
0.0075437202594
0.00763435395856
0.0077231544139
0.00780776795391
0.0078855225456
0.00795340796713
0.00800806839149
0.00804581026869
0.00806262882963
0.00805425713461
0.00801624188289
0.00794404869883
0.00783319837848
0.00767943272519
0.00747890596622
0.00722839389844
0.00692550904459
0.00656890688712
0.00615846540914
0.00569541937302
0.00518243252349
0.00462359220483
0.00402432477161
0.00339121298607
0.00273178392514
0.00205409625402
0.00136674180298
0.000677404229978
-4.19048672864e-06
0.00693528794157
0.00694717503203
0.00697556162143
0.00701842430551
0.0070727035494
0.00713713063382
0.00721118123549
0.00729406126416
0.00738468914463
0.00748189642097
0.0075844312621
0.00769086434775
0.00779952216064
0.00790845097119
0.00801538212023
0.00811769253614
0.0082123688057
0.00829598103803
0.00836466992352
0.00841415070258
0.00843973965258
0.00843640889976
0.00839887534081
0.00832172787272
0.0081995956218
0.00802735637151
0.00780038040725
0.00751479999871
0.00716778888035
0.00675783153757
0.00628495747733
0.00575091537203
0.0051592604884
0.004515342816
0.003826165061
0.00310017569737
0.00234680909352
0.00157643182809
0.000798713013165
2.56519346614e-05
0.00698851680281
0.00700142113177
0.00703227828611
0.0070789487255
0.00713821416418
0.00720883212139
0.00729038423462
0.00738217912159
0.00748324016153
0.00759252432038
0.00770892435964
0.0078311657313
0.00795773277797
0.00808682625777
0.0082163193789
0.0083437056368
0.00846604673502
0.00857992695097
0.00868141691695
0.00876605107787
0.00882882502105
0.00886422051982
0.00886626620006
0.00882864199525
0.00874483402854
0.0086083445027
0.00841295687701
0.0081530507279
0.00782395379283
0.00742231026184
0.006946436946
0.0063966333868
0.00577540677994
0.00508758365555
0.00434025896801
0.00354263784326
0.00270555499794
0.00184137809915
0.000962158600012
8.27378571438e-05
0.00703769241184
0.00705155628836
0.00708475022097
0.00713502556928
0.00719901969869
0.00727552488939
0.00736423417825
0.00746456652807
0.00757566190082
0.00769661827387
0.00782649330401
0.0079641936413
0.00810839582013
0.00825749888589
0.00840957285724
0.00856229523847
0.00871288397574
0.00885803252326
0.00899384958037
0.00911580719279
0.00921870399457
0.00929665212434
0.00934309814926
0.00935088903885
0.00931239501292
0.00921969967613
0.00906486499418
0.00884027328715
0.00853903988205
0.00815548028969
0.00768560286092
0.00712758776468
0.00648219986538
0.00575308936376
0.00494690457678
0.00407325346365
0.00314425629056
0.00217444352701
0.00117866385763
0.000175284903307
0.00708294305208
0.0070977064297
0.00713309747904
0.00718676491615
0.00725521524632
0.00733728256239
0.00743277465715
0.00754122600427
0.00766190179205
0.00779405321016
0.00793691916744
0.00808960965755
0.00825102315362
0.00841979636718
0.00859424710893
0.00877230172628
0.008951415058
0.00912848793898
0.00929978348817
0.00946084519559
0.0096064228049
0.00973041495548
0.00982583964248
0.00988484644985
0.0098987863334
0.00985835619082
0.00975383443542
0.00957542000486
0.00931368017436
0.0089601005884
0.0085077157266
0.00795178034047
0.00729042094457
0.0065252022193
0.00566150059161
0.00470869258956
0.00367983581966
0.00259164203542
0.00146214074863
0.000314023129701
0.00712441268906
0.00714001400384
0.00717745873462
0.0072342987083
0.00730692213472
0.00739421051453
0.00749608786034
0.00761220685395
0.00774196364804
0.00788477132295
0.00804006230595
0.0082071672838
0.00838523115385
0.00857316198369
0.00876957074817
0.00897269233981
0.00918029556417
0.00938958587267
0.00959710074645
0.00979859901108
0.00998894898222
0.0101620231148
0.0103106102952
0.0104263604261
0.0104997805372
0.0105203051561
0.010476466298
0.0103561883299
0.0101472281998
0.00983777220332
0.0094171826514
0.00887686643879
0.00821120422763
0.00741846312245
0.00650155000495
0.00546857657005
0.0043328208066
0.00311292459662
0.00183035724253
0.000513016574693
0.00716225742718
0.0071786343963
0.00721798749452
0.00727777674693
0.00735428359062
0.00744644126321
0.00755428967216
0.00767760012062
0.00781590260511
0.00796877737562
0.00813585843494
0.0083167095503
0.00851074069104
0.00871715846672
0.00893490525741
0.00916257701267
0.00939832685899
0.00963975715989
0.00988379795509
0.010126571264
0.0103632437784
0.0105878737098
0.0107932607812
0.0109708134482
0.011110453094
0.0112005819028
0.0112281474362
0.0111788418092
0.0110374749405
0.0107885561931
0.0104171050964
0.00990968795029
0.00925563659801
0.00844837444704
0.00748668009813
0.00637582205123
0.00512802536945
0.00376314567465
0.00230605939919
0.000790759840308
0.00719664233998
0.00721373263897
0.00725484865325
0.00731736293085
0.00739746065309
0.00749412996628
0.0076075248041
0.00773753333393
0.00788381965964
0.00804613319406
0.00822431351622
0.00841816479918
0.00862737471762
0.00885146845756
0.00908974992519
0.00934121960724
0.0096044759982
0.00987760176484
0.0101580308099
0.0104423932328
0.0107263381618
0.0110043367481
0.0112694711166
0.0115132198373
0.0117252578719
0.0118932976934
0.0120030089623
0.0120380652607
0.011980375432
0.0118105623666
0.0115087461696
0.0110556722531
0.0104341806582
0.00963097357483
0.00863850604738
0.00745691470648
0.00609529425198
0.00457324176152
0.0029184372723
0.00117169657654
0.00722773860546
0.00724548048625
0.00728821534361
0.00735323182927
0.00743662832542
0.00753745015352
0.00765596201056
0.00779216524657
0.00794585592394
0.00811695163925
0.00830549765353
0.00851154101175
0.00873505365449
0.0089758920422
0.00923374287478
0.00950804442536
0.00979789004942
0.0101019139253
0.0104181531709
0.0107438811315
0.0110754085255
0.0114078509503
0.0117348634127
0.012048347244
0.0123381415794
0.0125917220176
0.0127939425719
0.0129268739046
0.0129698098251
0.0128995315865
0.0126909305662
0.0123180888546
0.0117558843488
0.0109821496867
0.00998025061267
0.00874202816539
0.00727025737749
0.00558163314508
0.00370500564754
0.00168823311058
0.00725572100902
0.00727405379422
0.00731826614984
0.00738556555086
0.00747197205465
0.00757658970126
0.00769978952872
0.00784168063445
0.00800218682872
0.00818139022019
0.00837953833028
0.00859691892767
0.00883378899106
0.00909034161129
0.00936665851032
0.00966263794138
0.00997790460523
0.0103117004521
0.0106627490246
0.0110290858179
0.0114078484213
0.0117950204094
0.0121851240696
0.0125708597194
0.0129426953532
0.0132884196893
0.0135926864801
0.0138365989274
0.0139974100456
0.0140484480508
0.0139594074048
0.0136971748511
0.0132273530034
0.012516636779
0.0115360157492
0.0102648745437
0.0086950195448
0.00683586707597
0.004714070092
0.00238364469393
0.00728076574286
0.00729963025135
0.00734518262729
0.00741455096768
0.0075036845132
0.00761174713888
0.00773921076601
0.0078862853155
0.00805301637392
0.00823964460891
0.00844661319613
0.00867444433929
0.00892367540482
0.00919483451583
0.00948840168379
0.00980474611929
0.010144046427
0.0105061918748
0.0108906560606
0.0112963338583
0.0117213325498
0.0121627071331
0.0126161286585
0.0130754751782
0.0135323376527
0.0139754401536
0.0143899862546
0.0147569647238
0.015052479898
0.0152472172525
0.0153062104814
0.0151891423172
0.0148514528265
0.0142465854745
0.0133295384914
0.0120620742159
0.010418589877
0.00839440390629
0.00600779460633
0.00331582381526
0.00730304854161
0.00732238739431
0.00736914717011
0.00744037724562
0.00753196273974
0.00764312827694
0.00777444032619
0.0079262014219
0.00809857159886
0.00829194219418
0.00850694271872
0.00874431984939
0.00900488187655
0.00928948391285
0.0095989991039
0.0099342675997
0.0102960304568
0.0106848461096
0.0111009801557
0.011544258142
0.0120138703988
0.0125081153423
0.0130240648118
0.0135571324805
0.0141005256799
0.0146445627348
0.0151758452674
0.015676291426
0.0161220659368
0.0164824940926
0.0167191194684
0.0167851724597
0.016625818167
0.016179717587
0.0153823412382
0.0141718763095
0.0124968802253
0.0103285184637
0.00766624057163
0.00456309822987
0.00732274308394
0.00734250093803
0.00739034116853
0.00746323370974
0.00755700560031
0.00767094321864
0.00780570038626
0.00796166303291
0.00813909730966
0.00833853582578
0.00856078282111
0.00880679642518
0.00907764219266
0.00937448850301
0.00969858875107
0.0100512437396
0.0104337519
0.0108473449718
0.0112930997028
0.0117718150528
0.0122838428199
0.0128288560255
0.0134055343588
0.0140111408507
0.0146409584426
0.0152875508826
0.0159398110232
0.0165817657042
0.0171911258844
0.017737614259
0.0181811787544
0.0184703353057
0.0185410438503
0.0183168270275
0.0177108689135
0.0166316403766
0.0149915779893
0.0127236808488
0.00979182856839
0.00623102243202
0.00734001968377
0.00736014335599
0.00740894348647
0.0074833079906
0.00757901157583
0.00769540369726
0.00783321748906
0.00799291225337
0.00817485129467
0.00837969791209
0.00860841769029
0.0088621647276
0.00914224479707
0.00945012101327
0.00978740750327
0.0101558462757
0.0105572756389
0.010993587973
0.0114666680089
0.0119783015122
0.0125300424972
0.0131230224913
0.0137576791728
0.0144333737731
0.0151478572406
0.0158965338529
0.0166714594303
0.0174600025831
0.0182430966695
0.018993031574
0.0196707882801
0.0202230539553
0.0205792401895
0.020649276565
0.0203231168935
0.0194743535799
0.0179679986136
0.0156806870572
0.0125155223002
0.00846440347702
0.00735504420588
0.00737548271312
0.00742512920802
0.00750078452448
0.00759817687857
0.00771672068167
0.00785721950377
0.00802019555665
0.0082060999962
0.00841571532903
0.00865015364753
0.00891074758138
0.00919902323836
0.00951671587629
0.00986577503132
0.0102483563593
0.0106668091798
0.0111236581636
0.0116215712854
0.012163305297
0.0127516179821
0.0133891317692
0.0140781261644
0.014820227189
0.0156159491446
0.0164640271272
0.0173604567747
0.018297132184
0.0192599460159
0.0202261992921
0.0211611721917
0.0220137939943
0.0227114904909
0.0231548214497
0.0232127485571
0.022721699432
0.0214888760069
0.0193131709347
0.0160014070621
0.0114595641399
0.00736797723578
0.00738868168031
0.00743906853434
0.00751584331751
0.00761469423507
0.00773510278501
0.00787793315467
0.00804376004135
0.00823311337161
0.00844688301433
0.00868631208273
0.00895289331967
0.00924835171133
0.00957466950248
0.0099341024443
0.0103291864686
0.0107627445321
0.011237892829
0.011758040037
0.0123268726996
0.0129483182983