/*--------------------------------*- C++ -*----------------------------------*\
  =========                 |
  \\      /  F ield         | OpenFOAM: The Open Source CFD Toolbox
   \\    /   O peration     | Website:  https://openfoam.org
    \\  /    A nd           | Version:  7
     \\/     M anipulation  |
\*---------------------------------------------------------------------------*/
FoamFile
{
    version     2.0;
    format      ascii;
    class       surfaceScalarField;
    location    "731";
    object      phi;
}
// * * * * * * * * * * * * * * * * * * * * * * * * * * * * * * * * * * * * * //

dimensions      [0 3 -1 0 0 0 0];

internalField   nonuniform List<scalar> 
76358
(
0.000446064569849
-5.26769185013e-09
0.00044607963615
-1.50663003042e-08
0.00044610351633
-2.38801699661e-08
0.000446135329465
-3.18131326425e-08
0.000446174274221
-3.89447424463e-08
0.000446219613302
-4.53390786323e-08
0.000446270661841
-5.1048524016e-08
0.000446326777963
-5.61161227069e-08
0.000446387355962
-6.05779817472e-08
0.000446451821432
-6.44654723196e-08
0.000446519628386
-6.78069351905e-08
0.00044659025742
-7.06290395643e-08
0.000446663215208
-7.29577680553e-08
0.000446738034348
-7.48191493609e-08
0.000446814274033
-7.62396640448e-08
0.000446891520509
-7.72464896454e-08
0.000446969388037
-7.78675050591e-08
0.000447047519252
-7.81312321587e-08
0.000447125585883
-7.80666062382e-08
0.000447203288626
-7.77027628254e-08
0.000447280357364
-7.70687105849e-08
0.000447356550422
-7.61930804366e-08
0.000447431654249
-7.51037976188e-08
0.000447505482091
-7.38278666153e-08
0.000447577873222
-7.23910994084e-08
0.00044764869117
-7.08179749997e-08
0.000447717822652
-6.91314475296e-08
0.000447785175511
-6.73528895315e-08
0.000447850677529
-6.5501980555e-08
0.000447914274223
-6.35967270475e-08
0.000447975927681
-6.165341871e-08
0.000448035614355
-5.96867071444e-08
0.000448093324007
-5.77096115675e-08
0.000448149057618
-5.57336430876e-08
0.000448202826472
-5.37688129265e-08
0.000448254650345
-5.18239019078e-08
0.000448304556356
-4.99059672752e-08
0.000448352579122
-4.80227934332e-08
0.000448398752342
-4.61731801359e-08
-4.43889230186e-08
0.000448443141235
0.000432207604802
-1.03408840694e-08
0.000432222140963
-2.96024571194e-08
0.000432245192466
-4.69316694678e-08
0.000432275913794
-6.25344537537e-08
0.000432313539245
-7.65701837196e-08
0.000432357364021
-8.91638490285e-08
0.00043240673285
-1.00417342486e-07
0.000432461031646
-1.1041491423e-07
0.000432519680714
-1.1922703699e-07
0.000432582129729
-1.26914483383e-07
0.000432647854697
-1.33531891487e-07
0.000432716356255
-1.39130593834e-07
0.000432787159072
-1.43760574083e-07
0.000432859811842
-1.47471916218e-07
0.000432933887833
-1.50315647216e-07
0.00043300898559
-1.52344242835e-07
0.000433084729773
-1.53611682214e-07
0.000433160771865
-1.54173320902e-07
0.000433236790743
-1.54085480585e-07
0.000433312492982
-1.53404996827e-07
0.000433387612889
-1.52188615878e-07
0.000433461912261
-1.50492446036e-07
0.000433535179814
-1.48371352878e-07
0.000433607230425
-1.45878468629e-07
0.000433677904023
-1.43064701072e-07
0.000433747064438
-1.39978379013e-07
0.000433814597906
-1.36664923185e-07
0.000433880411685
-1.33166653783e-07
0.00043394443232
-1.29522626495e-07
0.000434006604198
-1.25768587653e-07
0.000434066887718
-1.21936949854e-07
0.000434125257899
-1.18056865581e-07
0.000434181702581
-1.14154303127e-07
0.000434236221179
-1.10252213948e-07
0.000434288822973
-1.06370614283e-07
0.000434339526142
-1.02527039991e-07
0.000434388355838
-9.87356738711e-08
0.000434435345005
-9.50119317038e-08
0.000434480526009
-9.13541978016e-08
-8.7822852267e-08
0.000434523959971
0.000418781109315
-1.52304834933e-08
0.00041879510663
-4.35997701367e-08
0.00041881731077
-6.91358044456e-08
0.00041884691785
-9.2141525637e-08
0.000418883201698
-1.12854029702e-07
0.000418925496031
-1.31458168227e-07
0.000418973182024
-1.48103336293e-07
0.000419025679544
-1.62912416123e-07
0.000419082440195
-1.75987690508e-07
0.000419142942367
-1.87416634855e-07
0.000419206687887
-1.97277414741e-07
0.000419273200391
-2.05643075737e-07
0.000419342024507
-2.12584696391e-07
0.000419412726079
-2.18173465091e-07
0.000419484892579
-2.22482155586e-07
0.000419558134157
-2.25585797462e-07
0.000419632084426
-2.27561962569e-07
0.000419706401603
-2.28490473415e-07
0.000419780769075
-2.28452966615e-07
0.000419854896198
-2.27532093856e-07
0.000419928518332
-2.25810765706e-07
0.000420001397107
-2.23371194099e-07
0.000420073319843
-2.2029410652e-07
0.000420144099269
-2.16657864739e-07
0.000420213572374
-2.12537827091e-07
0.000420281599698
-2.08005671379e-07
0.000420348063739
-2.03128987284e-07
0.000420412867965
-1.97970845426e-07
0.000420475934941
-1.92589629484e-07
0.000420537205229
-1.87038837039e-07
0.000420596635373
-1.81367119051e-07
0.000420654196818
-1.75618269315e-07
0.0004207098739
-1.69831410388e-07
0.00042076366287
-1.64041139577e-07
0.000420815569958
-1.58277722265e-07
0.000420865610641
-1.52567677537e-07
0.000420913807498
-1.4693255516e-07
0.000420960191256
-1.41395647397e-07
0.000421004792064
-1.35955031417e-07
-1.30700455571e-07
0.000421047669706
0.000405771685457
-1.99215954255e-08
0.000405785119093
-5.7033401732e-08
0.00040580643923
-9.04559390176e-08
0.000405834888905
-1.2059119844e-07
0.000405869787348
-1.47752461993e-07
0.000405910511943
-1.72182762028e-07
0.000405956485599
-1.94076977671e-07
0.000406007167316
-2.13594133387e-07
0.000406062044941
-2.30865297337e-07
0.000406120629751
-2.46001445725e-07
0.000406182453079
-2.59100722072e-07
0.00040624706431
-2.70254309086e-07
0.000406314030234
-2.7955059848e-07
0.000406382935012
-2.87078247298e-07
0.000406453380973
-2.92928094376e-07
0.00040652498951
-2.97194341613e-07
0.000406597402434
-2.99974862736e-07
0.000406670283023
-3.01371072137e-07
0.000406743317307
-3.01487226488e-07
0.000406816214776
-3.00429574882e-07
0.000406888709227
-2.98305191959e-07
0.000406960558893
-2.95220872763e-07
0.000407031546705
-2.91281891824e-07
0.000407101479789
-2.86590965e-07
0.000407170189177
-2.8124718723e-07
0.000407237528733
-2.75345244508e-07
0.000407303374428
-2.68974651918e-07
0.000407367622846
-2.62219284952e-07
0.000407430190192
-2.55156943075e-07
0.000407491010522
-2.47859190529e-07
0.000407550034645
-2.40391207026e-07
0.000407607228234
-2.32811885105e-07
0.000407662570753
-2.25173893025e-07
0.000407716053572
-2.17523985938e-07
0.000407767678983
-2.09903095263e-07
0.000407817458503
-2.02347229427e-07
0.000407865411678
-1.94885687625e-07
0.000407911566152
-1.87550157839e-07
0.000407955949654
-1.80338495242e-07
-1.73371355893e-07
0.000407998620514
0.000393166383167
-2.44060082224e-08
0.000393179228744
-6.98789773039e-08
0.00039319962782
-1.10855009784e-07
0.000393226874147
-1.47837519625e-07
0.000393260337248
-1.81215562928e-07
0.000393299443149
-2.1128865166e-07
0.000393343661235
-2.3829506309e-07
0.000393392494347
-2.62427231508e-07
0.000393445470866
-2.83841815896e-07
0.000393502139004
-3.02669565229e-07
0.000393562062967
-3.19024684354e-07
0.000393624820907
-3.33012229831e-07
0.000393690003952
-3.44733643878e-07
0.000393757216356
-3.54290631823e-07
0.000393826076148
-3.61787889066e-07
0.000393896216443
-3.67334616605e-07
0.000393967286784
-3.71045209338e-07
0.000394038954811
-3.73039078633e-07
0.000394110907602
-3.73440023969e-07
0.000394182853137
-3.72375089024e-07
0.000394254521213
-3.69973277731e-07
0.000394325664391
-3.66364028506e-07
0.000394396058265
-3.61675776736e-07
0.00039446550179
-3.56034466935e-07
0.000394533816885
-3.49562294195e-07
0.00039460084817
-3.42376505527e-07
0.000394666461999
-3.34588495585e-07
0.000394730545744
-3.26303003607e-07
0.000394793006396
-3.17617611479e-07
0.000394853769571
-3.08622337654e-07
0.000394912777847
-2.9939950387e-07
0.00039496998966
-2.90023666405e-07
0.000395025377507
-2.80561764572e-07
0.000395078926895
-2.71073336048e-07
0.000395130634482
-2.61610715886e-07
0.000395180507307
-2.52220009448e-07
0.000395228560515
-2.42938937126e-07
0.000395274818613
-2.3380820011e-07
0.000395319305732
-2.24825666439e-07
-2.16145004094e-07
0.000395362079443
0.000380952647165
-2.86744462757e-08
0.00038096487786
-8.21096679405e-08
0.000380984315308
-1.3029245693e-07
0.00038101030758
-1.738297893e-07
0.000381042278448
-2.13186422497e-07
0.000381079706654
-2.48716857496e-07
0.000381122112182
-2.80700579643e-07
0.000381169045695
-3.09360743903e-07
0.0003812200801
-3.34876207312e-07
0.000381274804205
-3.5739366765e-07
0.000381332818596
-3.77039059981e-07
0.00038139373315
-3.93926782247e-07
0.00038145716601
-4.08166487283e-07
0.000381522743492
-4.19868113473e-07
0.000381590100939
-4.29145319617e-07
0.000381658883994
-4.36117674275e-07
0.000381728750402
-4.40911600333e-07
0.000381799371791
-4.4366047073e-07
0.000381870435673
-4.44503889679e-07
0.000381941647115
-4.43586535554e-07
0.000382012730416
-4.41056562933e-07
0.000382083430273
-4.37063890029e-07
0.000382153512847
-4.31758334996e-07
0.000382222766243
-4.2528786965e-07
0.000382291000883
-4.17796917977e-07
0.000382358049278
-4.09424907724e-07
0.00038242376577
-4.00304970425e-07
0.000382488025704
-3.90562947364e-07
0.000382550724687
-3.80316576256e-07
0.000382611777316
-3.69674976865e-07
0.00038267111613
-3.58738298776e-07
0.000382728690081
-3.47597629569e-07
0.000382784463345
-3.36335006459e-07
0.000382838413682
-3.2502369084e-07
0.000382890531256
-3.13728262491e-07
0.000382940817068
-3.02505843123e-07
0.000382989281494
-2.91403323291e-07
0.000383035944614
-2.80471352956e-07
0.000383080826982
-2.69707985136e-07
-2.59302746065e-07
0.000383123984671
0.000369118312698
-3.27171409148e-08
0.000369129900995
-9.36979633811e-08
0.000369148334434
-1.48725890701e-07
0.000369173018356
-1.98513705672e-07
0.000369203433893
-2.43601959399e-07
0.000369239115876
-2.84398831186e-07
0.000369279638333
-3.21223036693e-07
0.00036932460337
-3.54325769543e-07
0.000369373631981
-3.83904817066e-07
0.000369426357196
-4.10118870713e-07
0.000369482419365
-4.33101226719e-07
0.000369541463373
-4.52970776416e-07
0.000369603137221
-4.69840334617e-07
0.00036966709189
-4.83822768611e-07
0.000369732982021
-4.95035451114e-07
0.000369800467432
-5.03603072149e-07
0.000369869214978
-5.09659147078e-07
0.000369938900831
-5.13346311221e-07
0.000370009212727
-5.14815786563e-07
0.000370079852307
-5.14226102765e-07
0.000370150537148
-5.11741406577e-07
0.000370221002686
-5.07529416419e-07
0.000370291003646
-5.01759297604e-07
0.00037036031527
-4.94599482633e-07
0.000370428733991
-4.86215642071e-07
0.000370496077888
-4.76768794733e-07
0.000370562186608
-4.66413694511e-07
0.000370626921124
-4.55297454087e-07
0.000370690163027
-4.4355848266e-07
0.000370751813741
-4.31325683509e-07
0.000370811793379
-4.1871793958e-07
0.000370870039594
-4.05843838187e-07
0.000370926506189
-3.92801604188e-07
0.000370981161796
-3.79679294392e-07
0.000371033988384
-3.66554849792e-07
0.000371084979999
-3.53497458995e-07
0.000371134140875
-3.40564194262e-07
0.000371181486241
-3.27816725872e-07
0.000371227031874
-3.15253603381e-07
-3.03103641111e-07
0.000371270832759
0.000357651593223
-3.65241201047e-08
0.000357662510846
-1.0461558237e-07
0.000357679895985
-1.66111028766e-07
0.000357703213643
-2.21831360843e-07
0.000357732004835
-2.72393143677e-07
0.000357765863157
-3.18257152482e-07
0.000357804419612
-3.59779482808e-07
0.000357847330795
-3.97236951003e-07
0.000357894269082
-4.30843093769e-07
0.00035794491505
-4.60764838136e-07
0.000357998952271
-4.8713843715e-07
0.000358056063957
-5.10082461337e-07
0.000358115931245
-5.2970761219e-07
0.000358178232695
-5.46124217727e-07
0.000358242644941
-5.59447686575e-07
0.000358308844106
-5.69802238068e-07
0.000358376507933
-5.7732296272e-07
0.000358445318219
-5.82156597623e-07
0.000358514963592
-5.84461149576e-07
0.000358585142216
-5.84404726397e-07
0.000358655564512
-5.82163693831e-07
0.000358725955559
-5.77920462627e-07
0.000358796057274
-5.71861005922e-07
0.000358865630135
-5.64172343925e-07
0.000358934454561
-5.55040063164e-07
0.000359002331795
-5.4464602859e-07
0.000359069084424
-5.33166320857e-07
0.000359134556451
-5.20769481608e-07
0.000359198613042
-5.07615073431e-07
0.000359261139931
-4.93852570232e-07
0.00035932204256
-4.79620572609e-07
0.000359381245044
-4.65046318025e-07
0.000359438688891
-4.50245458247e-07
0.000359494331741
-4.35322138184e-07
0.000359548145839
-4.20368959475e-07
0.000359600116846
-4.05468456507e-07
0.00035965024171
-3.90689078475e-07
0.000359698529824
-3.76104822449e-07
0.000359744991303
-3.61715108732e-07
-3.47792135229e-07
0.000359789679823
0.000346541068464
-4.0085383087e-08
0.000346551286954
-1.14834070571e-07
0.000346567578759
-1.82402827086e-07
0.000346589470331
-2.43722928757e-07
0.000346616564377
-2.99487189371e-07
0.000346648515252
-3.50208018289e-07
0.000346685013133
-3.96277363811e-07
0.000346725771657
-4.37995464528e-07
0.000346770517371
-4.75588807672e-07
0.000346818981547
-5.09229004709e-07
0.000346870894267
-5.39051157511e-07
0.000346925980578
-5.65168762547e-07
0.000346983958197
-5.87685232271e-07
0.000347044536709
-6.06702720608e-07
0.000347107417872
-6.22328850531e-07
0.000347172297019
-6.34681375269e-07
0.000347238865135
-6.43891078572e-07
0.000347306811603
-6.50103056623e-07
0.000347375827211
-6.53476757449e-07
0.000347445607428
-6.54184935368e-07
0.000347515855587
-6.52411851969e-07
0.000347586286005
-6.48350874315e-07
0.000347656626755
-6.42201754837e-07
0.000347726622135
-6.34167720714e-07
0.000347796034659
-6.24452586573e-07
0.000347864646612
-6.13257980957e-07
0.000347932261112
-6.0078081862e-07
0.000347998702701
-5.87211072738e-07
0.000348063817527
-5.72729896923e-07
0.00034812747308
-5.57508127928e-07
0.000348189557657
-5.41705143975e-07
0.000348249979441
-5.2546810979e-07
0.000348308665487
-5.08931495874e-07
0.000348365560367
-4.92217030011e-07
0.000348420624882
-4.75433461465e-07
0.000348473834602
-4.58678190754e-07
0.000348525177958
-4.42032419113e-07
0.00034857465717
-4.25584053385e-07
0.00034862227588
-4.09333797053e-07
-3.93602101786e-07
0.000348668085825
0.000335775673265
-4.33912092634e-08
0.000335785164839
-1.24325640509e-07
0.000335800318876
-1.97556863958e-07
0.00033582072441
-2.6412845923e-07
0.000335846046911
-3.24809682426e-07
0.000335876002705
-3.80163811722e-07
0.000335910342693
-4.30617343179e-07
0.000335948839432
-4.76492202034e-07
0.000335991276013
-5.18025379699e-07
0.000336037437138
-5.55390129672e-07
0.000336087102603
-5.88716613308e-07
0.000336140042729
-6.18108889264e-07
0.000336196015545
-6.43658040682e-07
0.000336254765377
-6.65452552603e-07
0.000336316022846
-6.83586312082e-07
0.00033637950593
-6.9816445784e-07
0.00033644492204
-7.09307180512e-07
0.000336511970764
-7.17151778935e-07
0.000336580347205
-7.21853190655e-07
0.000336649745574
-7.23583303636e-07
0.000336719862984
-7.22529255222e-07
0.000336790403121
-7.1889100952e-07
0.00033686107978
-7.12878408668e-07
0.000336931620014
-7.04707953891e-07
0.000337001766904
-6.94599474095e-07
0.0003370712818
-6.82772875708e-07
0.000337139946062
-6.69445080259e-07
0.000337207562261
-6.54827268958e-07
0.000337273954852
-6.39122490603e-07
0.000337338970406
-6.22523677351e-07
0.000337402477343
-6.05212085893e-07
0.000337464365394
-5.87356153017e-07
0.00033752454462
-5.69110728913e-07
0.000337582944369
-5.50616768554e-07
0.000337639511799
-5.32000900474e-07
0.000337694210716
-5.13377095981e-07
0.00033774701924
-4.9484095661e-07
0.000337797931294
-4.76496090159e-07
0.000337846942533
-4.58345054115e-07
-4.40762122981e-07
0.000337894102578
0.00032534468654
-4.64324708508e-08
0.000325353425001
-1.33064099012e-07
0.000325367398923
-2.11530778766e-07
0.000325386260357
-2.82989887984e-07
0.000325409737843
-3.48287168926e-07
0.000325437610142
-4.08036100839e-07
0.000325469689624
-4.62696824642e-07
0.000325505809014
-5.12611582539e-07
0.000325545809671
-5.58026036482e-07
0.000325589532086
-5.99112534617e-07
0.000325636808619
-6.35993145356e-07
0.000325687458285
-6.68758548795e-07
0.000325741283164
-6.9748291626e-07
0.000325798066397
-7.22235781664e-07
0.000325857571578
-7.43091489366e-07
0.000325919543437
-7.60136311835e-07
0.000325983709625
-7.73473363577e-07
0.000326049783419
-7.83225566624e-07
0.000326117467137
-7.89536904081e-07
0.000326186456068
-7.92572228665e-07
0.000326256442679
-7.92515862056e-07
0.000326327120927
-7.89569252023e-07
0.000326398190456
-7.83947933686e-07
0.000326469360547
-7.75878040072e-07
0.000326540353661
-7.65592586017e-07
0.000326610908505
-7.5332771554e-07
0.000326680782517
-7.39319090338e-07
0.000326749753786
-7.2379853574e-07
0.000326817622361
-7.06991063662e-07
0.000326884210999
-6.89112313044e-07
0.000326949365386
-6.70366469442e-07
0.000327012953885
-6.50944651098e-07
0.000327074866899
-6.31023738772e-07
0.000327135015884
-6.1076575296e-07
0.000327193332098
-5.90317109877e-07
0.000327249765327
-5.69810325743e-07
0.00032730428163
-5.49357254779e-07
0.000327356864861
-5.29079323127e-07
0.000327407501392
-5.08981578599e-07
-4.89498586729e-07
0.000327456237852
0.000315237720538
-4.92009768143e-08
0.00031524568222
-1.41025776412e-07
0.000315258437269
-2.24285827379e-07
0.000315275700505
-3.00253120853e-07
0.000315297263072
-3.69849725962e-07
0.000315322965775
-4.33738804573e-07
0.000315352682446
-4.92413485642e-07
0.000315386306406
-5.46235541142e-07
0.000315423738388
-5.95458008509e-07
0.00031546487641
-6.40250556014e-07
0.000315509607913
-6.80724640244e-07
0.000315557803735
-7.16954366061e-07
0.000315609313774
-7.48992953289e-07
0.00031566396418
-7.76886182598e-07
0.000315721556028
-8.00683334651e-07
0.000315781865406
-8.20445682492e-07
0.000315844644731
-8.36252685327e-07
0.000315909625212
-8.48206039601e-07
0.00031597652018
-8.56431867174e-07
0.000316045029181
-8.61081222285e-07
0.000316114842519
-8.62329194935e-07
0.000316185646097
-8.60372823564e-07
0.000316257126281
-8.55428112207e-07
0.000316328974629
-8.47726384223e-07
0.000316400892291
-8.37510242492e-07
0.000316472593931
-8.25029353408e-07
0.000316543811108
-8.10536260961e-07
0.000316614294981
-7.94282408557e-07
0.000316683818411
-7.76514485242e-07
0.00031675217732
-7.57471224309e-07
0.000316819191534
-7.37380673733e-07
0.00031688470491
-7.1645803031e-07
0.000316948585116
-6.9490393401e-07
0.000317010722812
-6.7290345294e-07
0.000317071030621
-6.50624908252e-07
0.000317129441863
-6.28221571413e-07
0.000317185908291
-6.05823672502e-07
0.000317240401839
-5.83572875106e-07
0.000317292897772
-5.61477500651e-07
-5.40039787597e-07
0.00031734343897
0.00030544471063
-5.16897649027e-08
0.000305451875278
-1.48190420979e-07
0.000305463377745
-2.35788285661e-07
0.00030547899466
-3.15870030863e-07
0.000305498578499
-3.89433565378e-07
0.000305522030942
-4.57191237677e-07
0.000305549286371
-5.19668913735e-07
0.000305580298372
-5.77247532041e-07
0.000305615027336
-6.3018697215e-07
0.000305653429947
-6.78653156859e-07
0.000305695450644
-7.22745333949e-07
0.000305741014896
-7.62518615079e-07
0.000305790023986
-7.9800203651e-07
0.000305842351298
-8.29213493045e-07
0.000305897840139
-8.5617217033e-07
0.000305956302996
-8.78908535915e-07
0.000306017522215
-8.9747189747e-07
0.00030608125194
-9.11935759089e-07
0.000306147221198
-9.22401117561e-07
0.000306215137914
-9.28997932861e-07
0.000306284693662
-9.31884935742e-07
0.000306355568888
-9.31248043959e-07
0.000306427438389
-9.27297606984e-07
0.000306499976787
-9.20264777204e-07
0.0003065728638
-9.10397251918e-07
0.000306645789116
-8.97954663792e-07
0.000306718456707
-8.83203849319e-07
0.000306790588515
-8.66414211307e-07
0.000306861927386
-8.47853355747e-07
0.0003069322393
-8.27783131222e-07
0.00030700131481
-8.06456184318e-07
0.000307068969867
-7.84113079097e-07
0.000307135045916
-7.60979983613e-07
0.000307199409564
-7.37267092826e-07
0.000307261951612
-7.13166957371e-07
0.000307322586096
-6.88856046985e-07
0.000307381247803
-6.64485381353e-07
0.00030743789455
-6.40219612438e-07
0.000307492488326
-6.16071279136e-07
-5.92618706805e-07
0.000307545067256
0.000295955905072
-5.38933970426e-08
0.000295962256648
-1.54541992103e-07
0.000295972479169
-2.46010806016e-07
0.00029598640944
-3.2980029792e-07
0.000296003959246
-4.06983361437e-07
0.000296025089099
-4.78321090428e-07
0.000296049792225
-5.44372029737e-07
0.00029607808122
-6.05536526277e-07
0.000296109975643
-6.6208138432e-07
0.000296145491142
-7.14168654247e-07
0.000296184630466
-7.61884650489e-07
0.000296227375974
-8.0526411675e-07
0.000296273683553
-8.44309613829e-07
0.00029632347794
-8.79007874258e-07
0.000296376649492
-9.09343719486e-07
0.000296433052479
-9.35311517353e-07
0.000296492504848
-9.56924261723e-07
0.000296554789435
-9.74220338547e-07
0.000296619656504
-9.8726818147e-07
0.000296686827484
-9.96168905584e-07
0.000296755999672
-1.00105711832e-06
0.0002968268517
-1.00210006488e-06
0.000296899049473
-9.99495375075e-07
0.000296972252342
-9.93467641107e-07
0.000297046119223
-9.84264128519e-07
0.000297120314447
-9.72149883681e-07
0.000297194513127
-9.57402525428e-07
0.000297268405888
-9.40306969339e-07
0.000297341702845
-9.21150308587e-07
0.00029741413676
-9.00217044699e-07
0.000297485465377
-8.77784795602e-07
0.000297555472912
-8.54120613225e-07
0.00029762397082
-8.29477885713e-07
0.000297690797835
-8.04094107823e-07
0.000297755819411
-7.78188526377e-07
0.000297818926888
-7.51963525446e-07
0.000297880035109
-7.25593594966e-07
0.000297939085026
-6.9926953091e-07
0.000297996022932
-6.73009177713e-07
-6.4747655526e-07
0.000298050880777
0.000286761855387
-5.58081662032e-08
0.000286767382728
-1.60069328431e-07
0.000286776305412
-2.54933481403e-07
0.000286788518122
-3.42013001807e-07
0.000286803989181
-4.22454420813e-07
0.000286822735142
-4.97067040792e-07
0.000286844805466
-5.66442353091e-07
0.000286870269679
-6.31000728564e-07
0.000286899205063
-6.91016767685e-07
0.000286931685739
-7.46649319921e-07
0.000286967773236
-7.97972143439e-07
0.000287007508405
-8.44999281092e-07
0.000287050904463
-8.87705664285e-07
0.000287097941273
-9.26044682405e-07
0.000287148561006
-9.59963446026e-07
0.000287202665241
-9.89415749296e-07
0.000287260113629
-1.01437264275e-06
0.000287320724081
-1.03483078592e-06
0.000287384274505
-1.05081859833e-06
0.000287450505944
-1.06240033882e-06
0.000287519126991
-1.06967815825e-06
0.000287589819236
-1.07279230541e-06
0.000287662243506
-1.07191963889e-06
0.000287736046578
-1.06727070913e-06
0.000287810868108
-1.05908565378e-06
0.000287886347446
-1.04762921804e-06
0.000287962130113
-1.03318518855e-06
0.00028803787369
-1.01605054298e-06
0.000288113252971
-9.96529586828e-07
0.000288187964246
-9.74928315024e-07
0.000288261728651
-9.5154919999e-07
0.000288334294603
-9.26686560422e-07
0.000288405439281
-9.00622562049e-07
0.000288474969328
-8.73624150274e-07
0.000288542720687
-8.45939884527e-07
0.000288608558159
-8.17800992519e-07
0.000288672373003
-7.89408438796e-07
0.000288734086188
-7.60982709002e-07
0.000288793625262
-7.32548253202e-07
-7.04865687622e-07
0.000288851014401
0.000277853406838
-5.74322946774e-08
0.00027785810418
-1.64766665932e-07
0.000277865715479
-2.6254478033e-07
0.000277876190405
-3.52487922072e-07
0.000277889550399
-4.3581440391e-07
0.000277905864477
-5.13381118936e-07
0.00027792523497
-5.85812834907e-07
0.000277947785319
-6.53551076947e-07
0.000277973648236
-7.16879673514e-07
0.000278002954826
-7.75955908759e-07
0.000278035825021
-8.30842329742e-07
0.000278072358935
-8.81533188353e-07
0.000278112629136
-9.27975862797e-07
0.000278156673909
-9.70089447537e-07
0.000278204491689
-1.00778122388e-06
0.000278256036889
-1.04096094177e-06
0.000278311217194
-1.06955294466e-06
0.000278369892515
-1.09350609909e-06
0.000278431875564
-1.1128016431e-06
0.000278496934114
-1.12745888188e-06
0.000278564794764
-1.13753880348e-06
0.000278635148093
-1.14314562763e-06
0.000278707654911
-1.14442645323e-06
0.000278781953357
-1.14156915013e-06
0.000278857666471
-1.13479876353e-06
0.000278934409948
-1.12437269174e-06
0.00027901179973
-1.1105749669e-06
0.000279089459148
-1.09370995799e-06
0.000279167025382
-1.07409581721e-06
0.000279244155043
-1.05205797434e-06
0.00027932052877
-1.02792292263e-06
0.000279395854754
-1.00201254345e-06
0.000279469871229
-9.74639032608e-07
0.000279542347933
-9.46100853827e-07
0.000279613086598
-9.16678545202e-07
0.00027968192094
-8.86635335345e-07
0.000279748714458
-8.56201951045e-07
0.000279813364329
-8.25632581101e-07
0.00027987577585
-7.94959768322e-07
-7.65053140519e-07
0.0002799359633
0.000269221689221
-5.87660229769e-08
0.000269225556543
-1.68633982478e-07
0.000269231853887
-2.68842114237e-07
0.000269240582478
-3.61216507664e-07
0.000269251812851
-4.47044776668e-07
0.00026926566229
-5.27230547682e-07
0.000269282281824
-6.0243236702e-07
0.000269301845017
-6.73114259997e-07
0.000269324536737
-7.39571392077e-07
0.000269350542686
-8.01961846909e-07
0.000269380039789
-8.60339429942e-07
0.000269413187265
-9.14680659158e-07
0.000269450118208
-9.64906796853e-07
0.000269490931882
-1.01090311896e-06
0.00026953568697
-1.05253630275e-06
0.000269584395959
-1.0896699281e-06
0.000269637020976
-1.12217795445e-06
0.000269693471177
-1.14995629635e-06
0.000269753601921
-1.17293238028e-06
0.000269817215737
-1.19107269366e-06
0.000269884065111
-1.20438817065e-06
0.000269953856944
-1.21293745699e-06
0.000270026258519
-1.21682802304e-06
0.000270100904657
-1.21621528561e-06
0.000270177405771
-1.21129987326e-06
0.000270255356403
-1.20232332019e-06
0.000270334343906
-1.18956246791e-06
0.000270413956889
-1.17332293661e-06
0.000270493793089
-1.15393201585e-06
0.000270573466451
-1.13173133218e-06
0.000270652613149
-1.10706962057e-06
0.000270730896504
-1.08029589347e-06
0.000270808010643
-1.0517531712e-06
0.000270883683045
-1.02177325165e-06
0.000270957675807
-9.90671307223e-07
0.000271029786345
-9.58745868281e-07
0.000271099845411
-9.26261017729e-07
0.000271167721954
-8.93509118608e-07
0.000271233294719
-8.60532533923e-07
-8.28323991237e-07
0.000271296565575
0.000260858108028
-5.98116929757e-08
0.000260861151235
-1.71677184645e-07
0.000260866141374
-2.73832251888e-07
0.000260873127362
-3.68202489414e-07
0.000260882224322
-4.56141726431e-07
0.000260893593009
-5.3859923423e-07
0.000260907428366
-6.16267713279e-07
0.000260923949466
-6.89635357911e-07
0.000260943389234
-7.59011149077e-07
0.000260965984547
-8.24557159074e-07
0.000260991966933
-8.86321806326e-07
0.000261021553477
-9.44267196305e-07
0.000261054937951
-9.98291268237e-07
0.000261092282279
-1.04824743771e-06
0.000261133708599
-1.093962619e-06
0.000261179292263
-1.13525358409e-06
0.000261229056007
-1.17194169523e-06
0.000261282965643
-1.2038659248e-06
0.00026134092747
-1.23089420459e-06
0.000261402787639
-1.25293285605e-06
0.000261468333505
-1.26993403358e-06
0.000261537297004
-1.28190095006e-06
0.000261609359877
-1.28889089343e-06
0.00026168416056
-1.29101596413e-06
0.000261761302372
-1.28844168259e-06
0.000261840362657
-1.28138360178e-06
0.000261920902422
-1.27010223124e-06
0.000262002476068
-1.25489657956e-06
0.000262084640773
-1.23609671818e-06
0.000262166965199
-1.21405575717e-06
0.00026224903721
-1.1891416276e-06
0.000262330470377
-1.16172905989e-06
0.000262410909182
-1.13219197204e-06
0.000262490032832
-1.10089690104e-06
0.000262567557664
-1.06819613455e-06
0.000262643238696
-1.03442690035e-06
0.000262716868155
-9.99890471778e-07
0.000262788281405
-9.64922369144e-07
0.000262857325593
-9.29576716985e-07
-8.94985372196e-07
0.000262923986972
0.00025275433582
-6.05737126908e-08
0.000252756566749
-1.73908107782e-07
0.000252760265856
-2.77531348366e-07
0.000252765525523
-3.73462150128e-07
0.00025277250057
-4.63116773082e-07
0.00025278139001
-5.47488662575e-07
0.000252792427321
-6.27305022813e-07
0.000252805871836
-7.03079862214e-07
0.000252821999581
-7.75138892809e-07
0.000252841094299
-8.43651865405e-07
0.000252863438616
-9.08666120905e-07
0.000252889305151
-9.70133725313e-07
0.000252918947367
-1.02793347453e-06
0.000252952590399
-1.08189046642e-06
0.000252990422123
-1.13179433379e-06
0.000253032584744
-1.17741620202e-06
0.000253079167333
-1.21852427515e-06
0.000253130199599
-1.25489818968e-06
0.000253185647353
-1.28634194957e-06
0.000253245409845
-1.3126953464e-06
0.000253309319325
-1.33384350677e-06
0.000253377142797
-1.34972441944e-06
0.000253448586069
-1.36033416026e-06
0.000253523299856
-1.36572974868e-06
0.000253600887736
-1.36602955782e-06
0.000253680915531
-1.3614113951e-06
0.000253762921716
-1.3521084121e-06
0.000253846428307
-1.33840316888e-06
0.000253930951794
-1.32062020206e-06
0.000254016013593
-1.2991175542e-06
0.00025410114966
-1.27427769302e-06
0.000254185918912
-1.24649830865e-06
0.000254269910226
-1.21618328475e-06
0.000254352747942
-1.1837346139e-06
0.00025443409565
-1.14954384017e-06
0.00025451365898
-1.113990227e-06
0.000254591184783
-1.07741627398e-06
0.000254666468544
-1.04020612665e-06
0.000254739319679
-1.00242785159e-06
-9.65370635833e-07
0.000254809704947
0.00024490230377
-6.10585293236e-08
0.000244903740049
-1.75344382527e-07
0.000244906173545
-2.7996484329e-07
0.000244909735639
-3.77024236338e-07
0.000244914615708
-4.67996831484e-07
0.000244921045458
-5.5391841097e-07
0.000244929291144
-6.35550697674e-07
0.000244939646509
-7.13435225681e-07
0.000244952425054
-7.87917427025e-07
0.000244967952143
-8.5917895253e-07
0.000244986557022
-9.27270989642e-07
0.00024500856431
-9.92141007066e-07
0.000245034284929
-1.05365409057e-06
0.000245064006553
-1.11161208067e-06
0.000245097983847
-1.16577162428e-06
0.000245136428862
-1.2158612086e-06
0.00024517950191
-1.26159731958e-06
0.000245227303428
-1.30269969852e-06
0.000245279867216
-1.33890573482e-06
0.000245337155539
-1.36998366238e-06
0.000245399056373
-1.39574433641e-06
0.00024546538312
-1.41605116129e-06
0.000245535876861
-1.43082789791e-06
0.00024561021116
-1.44006404226e-06
0.000245687999212
-1.44381760651e-06
0.00024576880305
-1.4422152284e-06
0.000245852144331
-1.43544969039e-06
0.000245937516212
-1.42377504577e-06
0.000246024395707
-1.40749969486e-06
0.000246112255987
-1.38697783035e-06
0.00024620057805
-1.3625997543e-06
0.000246288861346
-1.33478160133e-06
0.000246376632945
-1.30395488138e-06
0.000246463455085
-1.27055675119e-06
0.000246548930779
-1.23501953192e-06
0.00024663270819
-1.19776763567e-06
0.000246714480815
-1.15918889688e-06