/*--------------------------------*- C++ -*----------------------------------*\
  =========                 |
  \\      /  F ield         | OpenFOAM: The Open Source CFD Toolbox
   \\    /   O peration     | Website:  https://openfoam.org
    \\  /    A nd           | Version:  7
     \\/     M anipulation  |
\*---------------------------------------------------------------------------*/
FoamFile
{
    version     2.0;
    format      ascii;
    class       surfaceScalarField;
    location    "425";
    object      phi;
}
// * * * * * * * * * * * * * * * * * * * * * * * * * * * * * * * * * * * * * //

dimensions      [0 3 -1 0 0 0 0];

internalField   nonuniform List<scalar> 
67690
(
-5.23750882803e-09
0.000435888963164
-1.02725323655e-08
0.000421804437676
-1.51157030027e-08
0.000408175016993
-1.97508348017e-08
0.000394985969294
-2.41688468506e-08
0.000382223071732
-2.83595433177e-08
0.000369872553117
-3.23123286022e-08
0.000357921087896
-3.60164953782e-08
0.000346355781328
-3.94614827039e-08
0.000335164155639
-4.26371980248e-08
0.000324334136513
-4.55344108759e-08
0.000313854040237
-4.81450972741e-08
0.000303712560961
-5.04627894685e-08
0.000293898758555
-5.24828489123e-08
0.000284402046724
-5.42027013779e-08
0.000275212181471
-5.56219864182e-08
0.000266319250127
-5.67426475493e-08
0.000257713660384
-5.75689430249e-08
0.000249386129998
-5.81073939002e-08
0.00024132767673
-5.83666692732e-08
0.000233529608441
-5.8357417775e-08
0.000225983513828
-5.80920599727e-08
0.000218681253202
-5.75845427186e-08
0.000211614949697
-5.68500799805e-08
0.000204776980758
-5.59048725003e-08
0.000198159969895
-5.47658377654e-08
0.000191756778724
-5.3450333398e-08
0.000185560499269
-5.1975909435e-08
0.000179564446524
-5.03600636883e-08
0.000173762151262
-4.86200383708e-08
0.000168147353074
-4.67726248423e-08
0.000162713993647
-4.48340153931e-08
0.000157456210242
-4.28196632412e-08
0.000152368329445
-4.07441904358e-08
0.000147444860961
-3.86213015554e-08
0.000142680491865
-3.64637420994e-08
0.000138070080817
-3.42832581523e-08
0.000133608652507
-3.20905952938e-08
0.000129291392356
-2.98954954632e-08
0.00012511364133
-2.77067252206e-08
0.00012107089096
-2.55320988288e-08
0.000117158778401
-2.33785255361e-08
0.000113373081809
-2.12520498141e-08
0.000109709715804
-1.91579086669e-08
0.000106164726999
-1.7100581294e-08
0.000102734289768
-1.50838550503e-08
9.94147021976e-05
-1.31108677494e-08
9.6202381944e-05
-1.11840738394e-08
9.30938624123e-05
-9.30532637031e-09
9.00857890542e-05
8.71749151017e-05
-7.47528647938e-09
-1.49788518425e-08
0.000435903942038
-2.94054496791e-08
0.000421818864291
-4.32692009608e-08
0.000408188880767
-5.65422511381e-08
0.00039499924236
-6.9197532942e-08
0.000382235727035
-8.12056212459e-08
0.000369884561218
-9.25366145737e-08
0.000357932418908
-1.03160155413e-07
0.000346366404881
-1.1304613218e-07
0.000335174041633
-1.22165695803e-07
0.000324343256088
-1.30492280568e-07
0.000313862366837
-1.38002666516e-07
0.000303720071358
-1.44677917933e-07
0.00029390543382
-1.50504231653e-07
0.000284407873048
-1.55473580653e-07
0.000275217150832
-1.59584199909e-07
0.000266323360757
-1.62840840689e-07
0.000257716917037
-1.65254850854e-07
0.000249388544019
-1.66844036965e-07
0.000241329265929
-1.67632374811e-07
0.00023353039679
-1.67649544679e-07
0.000225983531011
-1.66930363214e-07
0.000218680534032
-1.65514098057e-07
0.000211613533445
-1.63443737106e-07
0.000204774910409
-1.60765201504e-07
0.000198157291373
-1.5752656935e-07
0.000191753540104
-1.53777295374e-07
0.000185556750008
-1.49567485542e-07
0.000179560236727
-1.44947205796e-07
0.000173757530996
-1.39965874677e-07
0.000168142371756
-1.34671711212e-07
0.000162708699498
-1.29111279881e-07
0.000157450649824
-1.23329097027e-07
0.000152362547276
-1.17367335062e-07
0.000147438899213
-1.11265582688e-07
0.000142674390128
-1.05060694392e-07
0.000138063875942
-9.87866842353e-08
0.000133602378512
-9.24746946752e-08
0.00012928508038
-8.61529957591e-08
0.000125107319646
-7.98470425111e-08
0.000121064585021
-7.35795501053e-08
0.000117152510924
-6.73706094287e-08
0.000113366872882
-6.1237811123e-08
0.000109703583021
-5.51963940974e-08
0.000106158685596
-4.92593922383e-08
0.00010272835278
-4.34377980727e-08
9.94088806176e-05
-3.77407610467e-08
9.6196684921e-05
-3.21757143978e-08
9.30882973795e-05
-2.67478872088e-08
9.00803612403e-05
8.71696294016e-05
-2.14621727758e-08
-2.37425742705e-08
0.000435927684628
-4.66222131121e-08
0.000421841743953
-6.8616541954e-08
0.000408210875113
-8.96844567508e-08
0.000395020310298
-1.09784698995e-07
0.000382255827292
-1.28872565749e-07
0.000369903649107
-1.46901843838e-07
0.000357950448198
-1.63824814966e-07
0.000346383327871
-1.79593686128e-07
0.000335189810514
-1.94162124539e-07
0.000324357824543
-2.07486979402e-07
0.000313875691701
-2.19529934172e-07
0.000303732114326
-2.30259106509e-07
0.000293916163002
-2.39650396442e-07
0.00028441726435
-2.47688623941e-07
0.000275225189069
-2.54368335405e-07
0.00026633004048
-2.59694323795e-07
0.000257722243035
-2.63681808711e-07
0.000249392531515
-2.66356324753e-07
0.000241331940455
-2.67753315472e-07
0.000233531793791
-2.67917483201e-07
0.000225983695189
-2.66901926867e-07
0.000218679518486
-2.64767113512e-07
0.000211611398642
-2.61579737213e-07
0.000204771723043
-2.57411498642e-07
0.000198153123145
-2.5233786876e-07
0.000191748466485
-2.4643685083e-07
0.000185550849002
-2.39787806442e-07
0.000179553587692
-2.32470337817e-07
0.000173750213539
-2.24563288718e-07
0.000168134464717
-2.16143834791e-07
0.000162700280056
-2.0728672201e-07
0.000157441792722
-1.98063603805e-07
0.000152353324171
-1.88542534387e-07
0.000147429378154
-1.78787550989e-07
0.000142664635157
-1.68858405407e-07
0.000138053946808
-1.58810362781e-07
0.000133592330482
-1.48694132891e-07
0.000129274964161
-1.38555843169e-07
0.00012509718137
-1.28437121869e-07
0.000121054466311
-1.18375199115e-07
0.000117142449014
-1.08403093474e-07
0.000113356900788
-9.85497982963e-08
0.000109693729739
-8.88405313076e-08
0.000106148976341
-7.92969674184e-08
0.00010271880923
-6.99374994402e-08
9.93995211616e-05
-6.07775150263e-08
9.61875249499e-05
-5.18298277109e-08
9.30793497044e-05
-4.31043906019e-08
9.00716358159e-05
8.71611305549e-05
-3.46055310056e-08
-3.1632924936e-08
0.000435959317574
-6.21291664366e-08
0.000421872240213
-9.14612332298e-08
0.000408240207203
-1.19580284429e-07
0.000395048429369
-1.46434831998e-07
0.000382282681863
-1.7196868337e-07
0.000369929182974
-1.9612229683e-07
0.000357974601833
-2.18832992484e-07
0.000346406038579
-2.40036934807e-07
0.000335211014475
-2.5967125996e-07
0.000324377458878
-2.77676350057e-07
0.000313893696806
-2.93998189934e-07
0.000303748436175
-3.08590523913e-07
0.000293930755348
-3.21416827826e-07
0.000284430090663
-3.3245191172e-07
0.000275236224164
-3.41683186212e-07
0.000266339271763
-3.49111485254e-07
0.000257729671344
-3.54751496381e-07
0.000249398171534
-3.58631755026e-07
0.000241335820723
-3.60794269176e-07
0.000233533956315
-3.6129378006e-07
0.000225984194709
-3.60196732669e-07
0.000218678421448
-3.57579995995e-07
0.000211608781914
-3.53529402755e-07
0.000204767672459
-3.4813816842e-07
0.00019814773192
-3.41505243161e-07
0.000191741833569
-3.33733665262e-07
0.000185543077433
-3.24928944284e-07
0.000179544782981
-3.15197543061e-07
0.000173740482146
-3.04645457161e-07
0.000168123912642
-2.93376957979e-07
0.000162689011565
-2.81493468213e-07
0.000157429909243
-2.69092632641e-07
0.000152340923344
-2.56267527039e-07
0.00014741655306
-2.43106066444e-07
0.000142651473705
-2.29690535535e-07
0.000138040531288
-2.16097302395e-07
0.000133578737258
-2.02396626685e-07
0.000129261263497
-1.88652622695e-07
0.000125083437375
-1.74923284946e-07
0.000121040736985
-1.61260634987e-07
0.000117128786374
-1.4771090112e-07
0.000113343351067
-1.34314785128e-07
0.000109680333634
-1.2110773804e-07
0.000106135769307
-1.08120297019e-07
0.0001027058218
-9.53783915505e-08
9.93867792687e-05
-8.29036566639e-08
9.61750502265e-05
-7.0713948165e-08
9.30671600085e-05
-5.88235093742e-08
9.00597453886e-05
8.71495436489e-05
-4.72365903487e-08
-3.87296152675e-08
0.000435998047204
-7.60857633479e-08
0.000421909596381
-1.12040285438e-07
0.000408276161747
-1.46542742429e-07
0.000395082931849
-1.79536552224e-07
0.000382315675694
-2.109580753e-07
0.00036996060452
-2.40737633575e-07
0.000358004381408
-2.68800015239e-07
0.000346434100981
-2.95067047501e-07
0.000335237281519
-3.19460127216e-07
0.000324401851974
-3.4190316978e-07
0.000313916139858
-3.62325526809e-07
0.000303768858546
-3.80664822448e-07
0.000293949094653
-3.96869483768e-07
0.000284446295336
-4.10900951822e-07
0.000275250255641
-4.22735422474e-07
0.000266351106244
-4.32365135481e-07
0.000257739301066
-4.39799132355e-07
0.000249405605541
-4.4506352872e-07
0.000241341085128
-4.4820128222e-07
0.000233537094077
-4.49271524265e-07
0.00022598526496
-4.48348483463e-07
0.000218677498416
-4.45520080734e-07
0.00021160595352
-4.4088625599e-07
0.000204763038643
-4.34557103219e-07
0.000198141402776
-4.26650891049e-07
0.000191733927365
-4.17292027986e-07
0.000185533718578
-4.06609054587e-07
0.000179534100016
-3.94732693425e-07
0.000173728605794
-3.81794035996e-07
0.000168110973992
-3.67922864047e-07
0.000162675140403
-3.5324617796e-07
0.000157415232565
-3.37886897054e-07
0.000152325564073
-3.21962797574e-07
0.000147400628968
-3.0558562545e-07
0.000142635096544
-2.88860445123e-07
0.000138023806116
-2.71885141762e-07
0.000133561761966
-2.54750135148e-07
0.000129244128499
-2.37538211294e-07
0.000125066225463
-2.20324529217e-07
0.000121023523312
-2.03176706106e-07
0.000117111638563
-1.86155036999e-07
0.000113326329407
-1.69312754908e-07
0.000109663491363
-1.52696386103e-07
0.000106119152948
-1.36346125227e-07
0.000102689471551
-1.20296267069e-07
9.9370729421e-05
-1.04575542401e-07
9.61593295141e-05
-8.9207649789e-08
9.30517921267e-05
-7.42121283566e-08
9.00447498793e-05
8.71349270806e-05
-5.95955484401e-08
-4.50965764099e-08
0.000436043143799
-8.86167233108e-08
0.000421953116546
-1.3053804212e-07
0.000408318083085
-1.70814008791e-07
0.000395123207839
-2.09388119447e-07
0.000382354249828
-2.46193542131e-07
0.000369997409965
-2.81153836827e-07
0.000358039341725
-3.14183939481e-07
0.000346467131101
-3.45193148282e-07
0.000335268290747
-3.74088131386e-07
0.00032443074697
-4.00776411277e-07
0.000313942828154
-4.25169919628e-07
0.000303793252065
-4.4718840785e-07
0.000293971113154
-4.66762647767e-07
0.000284465869585
-4.83837221866e-07
0.000275267330227
-4.98372884394e-07
0.000266365641915
-5.103483644e-07
0.000257751276557
-5.19761625912e-07
0.000249415018811
-5.26630522109e-07
0.000241347954034
-5.3099289235e-07
0.000233541456456
-5.32906095927e-07
0.000225987178173
-5.32446059396e-07
0.000218677038387
-5.2970587666e-07
0.000211603213346
-5.24794053874e-07
0.000204758126828
-5.17832468267e-07
0.000198134441198
-5.08954131448e-07
0.000191725049036
-4.98300841056e-07
0.000185523065296
-4.86020793567e-07
0.000179521819977
-4.72266243226e-07
0.000173714851252
-4.57191250339e-07
0.000168095899007
-4.40949596564e-07
0.000162658898757
-4.23692875592e-07
0.000157397975853
-4.05568824999e-07
0.00015230744003
-3.86719873982e-07
0.000147381780027
-3.67281961511e-07
0.000142615658639
-3.47383572014e-07
0.000138003907736
-3.27145033885e-07
0.000133541523436
-3.06678008792e-07
0.000129223661485
-2.86085211855e-07
0.000125045632674
-2.65460280753e-07
0.000121002898392
-2.44887830454e-07
0.000117091066122
-2.24443610205e-07
0.000113305885198
-2.04194797973e-07
0.000109643242561
-1.84200350094e-07
0.000106099158512
-1.64511448507e-07
0.00010266978266
-1.45171986821e-07
9.93513899712e-05
-1.26218997323e-07
9.61403765354e-05
-1.07683006873e-07
9.30332561485e-05
-8.95898045882e-08
9.00266566881e-05
8.71172860485e-05
-7.19487597554e-08
-5.07860123604e-08
0.000436093929824
-9.98235276177e-08
0.000422002154077
-1.4710315215e-07
0.00040836536273
-1.92587833887e-07
0.00039516869254
-2.36226177129e-07
0.000382397888195
-2.77952394062e-07
0.000370039136203
-3.17686845788e-07
0.000358079076198
-3.55337488e-07
0.000346504781763
-3.90803218295e-07
0.000335303756495
-4.2397726484e-07
0.000324463921035
-4.5475122374e-07
0.000313973602127
-4.83019117094e-07
0.000303821519974
-5.08681434074e-07
0.000293996775483
-5.31648920494e-07
0.000284488837085
-5.5184604724e-07
0.000275287527363
-5.69213987714e-07
0.000266383009868
-5.83713080457e-07
0.000257765775659
-5.95324661855e-07
0.000249426630404
-6.04052285458e-07
0.000241356681666
-6.09922270452e-07
0.000233547326451
-6.12983635915e-07
0.000225990239547
-6.13307416847e-07
0.000218677362178
-6.10985453051e-07
0.00021160089139
-6.06128689394e-07
0.000204753270073
-5.98865099271e-07
0.000198127177616
-5.8933729792e-07
0.000191715521243
-5.7769995988e-07
0.000185511427966
-5.64117118273e-07
0.000179508237143
-5.48759444737e-07
0.000173699493586
-5.31801584747e-07
0.000168078941155
-5.1341961837e-07
0.000162640516799
-4.93788707851e-07
0.00015737834495
-4.73080967032e-07
0.000152286732298
-4.51463597062e-07
0.000147360162664
-4.29097289095e-07
0.00014259329234
-4.06134921652e-07
0.000137980945377
-3.82720525174e-07
0.000133518109049
-3.5898852898e-07
0.000129199929497
-3.35063243693e-07
0.000125021707399
-3.11058586465e-07
0.000120978893744
-2.87077991595e-07
0.000117067085537
-2.63214511149e-07
0.000113282021727
-2.39551046475e-07
0.000109619579107
-2.16160711149e-07
0.000106075768186
-1.93107268357e-07
0.000102646729228
-1.70445687848e-07
9.93287284007e-05
-1.48222646432e-07
9.61181535051e-05
-1.26476644092e-07
9.30115101564e-05
-1.05240811199e-07
9.00054208663e-05
8.70965730084e-05
-8.45277600572e-08
-5.58407589379e-08
0.000436149770598
-1.09789904797e-07
0.000422056103239
-1.61857604652e-07
0.000408417430445
-2.12021827574e-07
0.000395218856785
-2.60241186782e-07
0.000382446107572
-3.06455137509e-07
0.000370085350177
-3.50584525435e-07
0.000358123205606
-3.92533437203e-07
0.000346546730695
-4.32192817096e-07
0.000335343415893
-4.69444202445e-07
0.000324501172437
-5.04164191574e-07
0.000314008322134
-5.36228977619e-07
0.000303853584774
-5.65518905934e-07
0.000294026065427
-5.9192288068e-07
0.000284515241072
-6.15342443415e-07
0.000275310946941
-6.35695456729e-07
0.000266403362892
-6.52919234035e-07
0.000257782999449
-6.66973094396e-07
0.000249440684274
-6.77840227345e-07
0.000241367548811
-6.85528890478e-07
0.000233555015123
-6.90072875604e-07
0.000225994783543
-6.91531312978e-07
0.000218678820624
-6.8998779944e-07
0.000211599347887
-6.85548961614e-07
0.000204748831244
-6.78342481636e-07
0.000198119971146
-6.68514724106e-07
0.000191705693493
-6.56228018648e-07
0.000185499141269
-6.41657744264e-07
0.000179493666876
-6.24989279312e-07
0.00017368282513
-6.06414950735e-07
0.000168060366834
-5.8613103956e-07
0.000162620232896
-5.64334948274e-07
0.000157356548867
-5.41222569371e-07
0.000152263619927
-5.16985924753e-07
0.000147335926028
-4.91811092843e-07
0.000142568117517
-4.65876457231e-07
0.00013795501075
-4.39351272604e-07
0.000133491583872
-4.12394551786e-07
0.000129172972784
-3.85154253636e-07
0.000124994467109
-3.57766755014e-07
0.000120951506254
-3.30356576845e-07
0.000117039675368
-3.03036336252e-07
0.000113254701495
-2.75906893152e-07
0.000109592449673
-2.49057658355e-07
0.00010604891896
-2.22567019907e-07
0.000102620238599
-1.96502908748e-07
9.93026642989e-05
-1.70923424441e-07
9.60925740304e-05
-1.45876583861e-07
9.29864633255e-05
-1.21404398219e-07
8.99809486903e-05
8.70726923864e-05
-9.75237658355e-08
-6.02966652256e-08
0.000436210067274
-1.18585714405e-07
0.0004221143923
-1.74902562207e-07
0.00040847374731
-2.2924538503e-07
0.000395273199622
-2.81587407526e-07
0.000382498449617
-3.31877473662e-07
0.00037013564026
-3.80040655229e-07
0.000358171368809
-4.25980501109e-07
0.000346592670559
-4.69582817005e-07
0.000335387018227
-5.10719683867e-07
0.000324542309321
-5.49254248979e-07
0.000314046856716
-5.85045618074e-07
0.000303889376161
-6.17953870423e-07
0.000294058973695
-6.4784496645e-07
0.000284545132185
-6.74595446186e-07
0.000275337697433
-6.98096750121e-07
0.000266426864211
-7.18259101336e-07
0.000257803161811
-7.35014788282e-07
0.000249457439975
-7.48320834786e-07
0.000241380854867
-7.58160926252e-07
0.000233564855227
-7.64546628131e-07
0.000226001169253
-7.67517809765e-07
0.000218681791817
-7.67142363663e-07
0.000211598972449
-7.6351518149e-07
0.000204745204072
-7.56756526301e-07
0.000198113212498
-7.47009805549e-07
0.000191695946783
-7.34438918955e-07
0.00018548657039
-7.19225214379e-07
0.000179478453182
-7.01564238515e-07
0.000173665164161
-6.81662325733e-07
0.000168040464931
-6.5973320176e-07
0.000162598303779
-6.35994637012e-07
0.000157332810311
-6.10665297988e-07
0.000152238290595
-5.83961810571e-07
0.000147309222549
-5.56096145408e-07
0.000142540251859
-5.27273312297e-07
0.000137926187925
-4.97689434667e-07
0.000133462000002
-4.67530165944e-07
0.000129142813525
-4.36969485698e-07
0.000124963906437
-4.06168818354e-07
0.000120920705595
-3.75276488878e-07
0.000117008783046
-3.44427447126e-07
0.000113223852462
-3.13743263019e-07
0.000109561765496
-2.83332324471e-07
0.000106018508031
-2.53290212073e-07
0.000102590196494
-2.23700222778e-07
9.92730743185e-05
-1.94634137041e-07
9.60635079527e-05
-1.66151477128e-07
9.29579806745e-05
-1.38305075186e-07
8.99531022964e-05
8.70455047422e-05
-1.11117421784e-07
-6.41847589112e-08
0.000436274252046
-1.26270954342e-07
0.000422176478509
-1.86324220896e-07
0.000408533800588
-2.44367488221e-07
0.000395331242908
-3.00392828339e-07
0.000382554474969
-3.54362403295e-07
0.000370189609857
-4.06209278696e-07
0.0003582232157
-4.55839949859e-07
0.000346642301249
-5.03138257919e-07
0.000335434316552
-5.47969570277e-07
0.000324587140651
-5.90185785577e-07
0.000314089072948
-6.29630452503e-07
0.000303928820846
-6.66144115856e-07
0.000294095487376
-6.99569636962e-07
0.000284578557722
-7.29757386024e-07
0.0002753678852
-7.56570195525e-07
0.000266453677034
-7.7988791103e-07
0.000257826479543
-7.99611489103e-07
0.000249477163563
-8.15666463243e-07
0.000241396909856
-8.28005777007e-07
0.00023357719455
-8.36611822747e-07
0.000226009775312
-8.41497739332e-07
0.000218686677741
-8.42707847193e-07
0.000211600182569
-8.40317333207e-07
0.000204742813565
-8.34431115433e-07
0.000198107326292
-8.25182055609e-07
0.00019168669773
-8.12728498774e-07
0.000185474116844
-7.97251348103e-07
0.000179462976037
-7.78950689783e-07
0.000173646863513
-7.58042193243e-07
0.000168019556441
-7.3475331508e-07
0.00016257501491
-7.09319523694e-07
0.000157307376526
-6.81980565115e-07
0.000152210951646
-6.52976958195e-07
0.000147280218949
-6.22546714838e-07
0.000142509821624
-5.90922432518e-07
0.000137894563649
-5.5832872316e-07
0.000133429406302
-5.24980083036e-07
0.000129109464891
-4.91079136497e-07
0.000124930005499
-4.56815321524e-07
0.000120886441787
-4.22363927326e-07
0.000116974331661
-3.87885524677e-07
0.000113189374066
-3.53525686415e-07
0.000109527405667
-3.19415029865e-07
0.000105984397381
-2.85669451353e-07
0.000102556450924
-2.52390569899e-07
9.92397954438e-05
-2.19666614778e-07
9.60307840062e-05
-1.87571079548e-07
9.29258851461e-05
-1.56170019803e-07
8.9921701245e-05
8.70148277194e-05
-1.25492989733e-07
-6.75329885031e-08
0.000436341785043
-1.32899398842e-07
0.000422241844929
-1.96199236925e-07
0.000408597100441
-2.57484064642e-07
0.000395392527745
-3.16768501466e-07
0.000382613759425
-3.74031717672e-07
0.000370246873085
-4.29218407742e-07
0.00035827840241
-4.82241622901e-07
0.00034669532448
-5.3298669117e-07
0.000335485061638
-5.81315499256e-07
0.000324635469475
-6.27071549091e-07
0.000314134829015
-6.70085181714e-07
0.000303971834494
-7.10179092307e-07
0.000294135581305
-7.47173918878e-07
0.000284615552566
-7.80893818267e-07
0.000275401605114
-8.11171903365e-07
0.000266483955137
-8.37855448666e-07
0.0002578531631
-8.60810691671e-07
0.000249500118823
-8.79927190928e-07
0.000241416026365
-8.95121530033e-07
0.000233592388904
-9.06340381987e-07
0.000226020994172
-9.13562730393e-07
0.000218693900103
-9.16801316301e-07
0.000211603421161
-9.16103149755e-07
0.00020474211541
-9.11549215151e-07
0.000198102772363
-9.03253270008e-07
0.000191678401795
-8.91359924984e-07
0.000185462223504
-8.76041966347e-07
0.000179447658089
-8.5749715392e-07
0.000173628318706
-8.35944501682e-07
0.000167998003798
-8.11620295115e-07
0.000162550690709
-7.8477387348e-07
0.000157280530113
-7.55663424766e-07
0.000152181841203
-7.24551814783e-07
0.000147249107348
-6.91702668165e-07
0.000142476972483
-6.57376694992e-07
0.000137860237685
-6.21828437342e-07
0.00013339385805
-5.8530339034e-07
0.000129072939853
-5.48035625564e-07
0.00012489273774
-5.10245833274e-07
0.000120848652003
-4.72139871318e-07
0.000116936225705
-4.33907707527e-07
0.000113151141911
-3.95722811435e-07
0.000109489220777
-3.57741877598e-07
0.000105946416455
-3.20104899889e-07
0.000102518813952
-2.82935388138e-07
9.92026259403e-05
-2.46341428863e-07
9.59941900529e-05
-2.10413508171e-07
9.28899572333e-05
-1.75233918336e-07
8.98865216611e-05
8.69804348555e-05
-1.40841046623e-07
-7.03675660365e-08
0.000436412152619
-1.38521376665e-07
0.00042230999875
-2.045990252e-07
0.000408663178097
-2.68683798775e-07
0.000395456612534
-3.30816045233e-07
0.00038267589168
-3.90995210533e-07
0.000370307052268
-4.49181108288e-07
0.000358336588319
-5.05296926961e-07
0.000346751440316
-5.5923315737e-07
0.000335538997883
-6.10851829043e-07
0.000324687088164
-6.59991511615e-07
0.000314183968713
-7.06472469303e-07
0.000304018315471
-7.50102203105e-07
0.000294179211054
-7.90681112223e-07
0.000284656131494
-8.28008294629e-07
0.000275438932315
-8.61887330959e-07
0.000266517834188
-8.92131965257e-07
0.000257883407752
-9.18571589451e-07
0.000249526558458
-9.4105634465e-07
0.000241438511135
-9.59461801178e-07
0.000233610794369
-9.7369298407e-07
0.000226035225368
-9.83687746734e-07
0.000218703894872
-9.89419267955e-07
0.000211609152694
-9.90897724052e-07
0.000204743593872
-9.88170958754e-07
0.000198100045608
-9.81324264794e-07
0.000191671555107
-9.70479170005e-07
0.000185451378419
-9.5579140781e-07
0.000179432970331
-9.37448038483e-07
0.000173609975346
-9.15663955039e-07
0.00016797621972
-8.90677798067e-07
0.000162525704561
-8.62747542116e-07
0.000157252599862
-8.32145806285e-07
0.000152151239476
-7.99155149395e-07
0.000147216116696
-7.64063397292e-07
0.00014244188074
-7.27159233157e-07
0.000137823333527
-6.88728065798e-07
0.000133355426891
-6.49048359854e-07
0.000129033260152
-6.08388396387e-07
0.000124852077785
-5.67003595822e-07
0.000120807267208
-5.25134325543e-07
0.000116894356443
-4.83004277902e-07
0.000113109011869
-4.40819301906e-07
0.000109447035809
-3.98766749901e-07
0.000105904363909
-3.57015207164e-07
0.000102477062418
-3.15714434793e-07
9.91613251738e-05
-2.74996516368e-07
9.59534721424e-05
-2.34972686736e-07
9.28499334098e-05
-1.95745198325e-07
8.98472941801e-05
8.69420532008e-05
-1.57363537014e-07
-7.27139836332e-08
0.00043648486661
-1.43185803665e-07
0.000422380470578
-2.11592837925e-07
0.000408731585144
-2.78052422038e-07
0.000395523072125
-3.42633142731e-07
0.000382740472416
-4.05357587117e-07
0.00037036977672
-4.66203846535e-07
0.000358397434595
-5.25108763233e-07
0.000346810345244
-5.81971731993e-07
0.000335595860868
-6.36658854135e-07
0.0003247417753
-6.8900771941e-07
0.000314236317595
-7.38832374615e-07
0.000304068140138
-7.85928677517e-07
0.000294226307377
-8.30079892817e-07
0.000284700282725
-8.71062474904e-07
0.000275479914916
-9.08652020185e-07
0.000266555423751
-9.42629261314e-07
0.000257917385009
-9.72786020496e-07
0.000249556715233
-9.9893100925e-07
0.000241464656137
-1.02089531795e-06
0.00023363275869
-1.03853748247e-06
0.000226052867543
-1.05174794998e-06
0.00021871710535
-1.06045284309e-06
0.000211617857596
-1.06461685606e-06
0.000204747757895
-1.06424523115e-06
0.00019809967399
-1.05938469111e-06
0.000191666694575
-1.05012335347e-06
0.000185442117088
-1.03658957035e-06
0.000179419436557
-1.01894980786e-06
0.000173592335589
-9.97405583979e-07
0.000167954675504
-9.72189656951e-07
0.00016250048864
-9.43561544271e-07
0.000157223971758
-9.11802613629e-07
0.000152119480551
-8.77210854887e-07
0.000147181524946
-8.40095586088e-07
0.000142404765477
-8.00772193562e-07
0.000137784010142
-7.5955713516e-07
0.000133314211839
-7.1676326565e-07
0.000128990466291
-6.72695664424e-07
0.00012480801019
-6.27647967678e-07
0.00012076221952
-5.81899326213e-07
0.000116848607807
-5.35711936866e-07
0.000113062824488
-4.89329206737e-07
0.000109400653085
-4.42974464973e-07
0.000105858009176
-3.968502758e-07
0.000102430938235
-3.51137875306e-07
9.91156127814e-05
-3.0599843072e-07
9.59083327048e-05
-2.61568517545e-07
9.28055035046e-05
-2.1797498948e-07
8.98037006593e-05
8.68993594973e-05
-1.75281277377e-07
-7.45977225878e-08
0.000436559464341
-1.46941584168e-07
0.000422452814448
-2.17249963553e-07
0.000408801893529
-2.85675716923e-07
0.000395591497892
-3.52317556252e-07
0.000382807114261
-4.17223504056e-07
0.000370434682683
-4.80392763183e-07
0.000358460603861
-5.41779089891e-07
0.000346871731585
-6.01294512738e-07
0.000335655376301
-6.58813266878e-07
0.000324799294068
-7.14176291862e-07
0.000314291680632
-7.67195834003e-07
0.0003041211597
-8.17660503924e-07
0.000294276772059
-8.6534053407e-07
0.000284747962776
-9.09993411458e-07
0.00027552456781
-9.51369717492e-07
0.000266596800077
-9.89219229148e-07
0.000257955234536
-1.02329712917e-06
0.000249590793152
-1.05337029741e-06
0.000241494729317
-1.07922347006e-06
0.00023365861188
-1.10066523066e-06
0.000226074309311
-1.1175335442e-06
0.000218733973678
-1.12970080249e-06
0.000211630024861
-1.13707807875e-06
0.000204755135182
-1.13961856714e-06
0.000198102214484
-1.13731995791e-06
0.000191664395976
-1.13022575685e-06
0.000185435022892
-1.11842539743e-06
0.000179407636206
-1.10205321569e-06
0.000173575963413
-1.08128625521e-06
0.000167933908551
-1.05634104556e-06
0.000162475543436
-1.02746943432e-06
0.000157195100154
-9.94953675648e-07
0.000152086964798
-9.59100937285e-07
0.000147145672214
-9.20237453978e-07
0.000142365902
-8.78702524279e-07
0.000137742475219
-8.34842560519e-07
0.000133270351881
-7.89005376863e-07
0.000128944629114
-7.41534870116e-07
0.00012476053969
-6.92766231823e-07
0.000120713450888
-6.43021770558e-07
0.000116798863353
-5.92607423575e-07
0.000113012410148
-5.41809956877e-07
0.000109349855626
-4.90894868968e-07
0.000105807094094
-4.40105035564e-07
0.000102380148409
-3.89659474037e-07
9.90651672269e-05
-3.39754602517e-07
9.58584278411e-05
-2.90558016104e-07
9.2756306926e-05
-2.42226908881e-07
8.97553695607e-05
8.68519748909e-05
-1.94842293434e-07
-7.60447010368e-08
0.000436635509048
-1.49838534022e-07
0.000422526608288
-2.21641137611e-07
0.000408873696143
-2.91641574782e-07
0.000395661498333
-3.59969840074e-07
0.00038287544254
-4.26701164181e-07
0.000370501414011
-4.91858190184e-07
0.0003585257609
-5.55414566059e-07
0.000346935287968
-6.17298477233e-07
0.000335717260224
-6.77396372155e-07
0.000324859391973
-7.35557040573e-07
0.000314349841315
-7.91595790277e-07
0.000304177198458
-8.45298982395e-07
0.000294330475271
-8.96428868289e-07
0.000284799092676
-9.44728755622e-07
0.000275572867717
-9.89928578832e-07
0.000266641999916
-1.03175079203e-06
0.00025799705677
-1.06991662603e-06
0.000249628958999
-1.10415254626e-06
0.000241528965259
-1.13419693815e-06
0.00023368865628
-1.1598067213e-06
0.000226099919114
-1.18076393249e-06
0.000218754930895
-1.19688186799e-06
0.000211646142812
-1.20801082984e-06
0.000204766264148
-1.21404303123e-06
0.000198108246699
-1.21491671263e-06
0.00019166526966
-1.21061906703e-06
0.000185430725258
-1.20118806335e-06
0.000179398205205
-1.1867128674e-06
0.000173561488227
-1.16733302414e-06
0.00016791452871
-1.1432362342e-06
0.000162451446655
-1.11465498121e-06
0.000157166518904
-1.08186197647e-06
0.000152054171802
-1.04516475913e-06
0.000147108975
-1.0048995183e-06
0.000142325636767
-9.61424518426e-07
0.000137699000222
-9.15113238856e-07
0.000133224040609
-8.66347600018e-07
0.000128895863478
-8.15511373483e-07
0.00012470970347
-7.62984090973e-07
0.000120660923608
-7.0913549276e-07
0.000116745014761
-6.54320746112e-07
0.000112957595404
-5.98876397324e-07
0.000109294411283
-5.43117171802e-07
0.000105751334871
-4.87333692935e-07
0.000102324364936
-4.31790283638e-07
9.900962382e-05
-3.76726115437e-07
9.58033636779e-05
-3.2234678335e-07
9.2701927596e-05
-2.68846946881e-07
8.97018697284e-05
8.67994577566e-05
-2.16329811009e-07
-7.70814951955e-08
0.00043671259055
-1.51927849909e-07
0.000422601454649
-2.24839346373e-07
0.000408946607645
-2.96041137528e-07
0.000395732700136
-3.65695014377e-07
0.00038294509642
-4.3390453865e-07
0.000370569623548
-5.00717650385e-07
0.000358592574017
-5.66130402938e-07
0.000347000700731
-6.30090383958e-07
0.000335781220212
-6.92500147112e-07
0.000324921801746
-7.53220864278e-07
0.000314410562039
-8.12075940228e-07
0.00030423605355
-8.68854985021e-07
0.000294387254325
-9.23317968725e-07
0.000284853555677
-9.75199831248e-07
0.000275624749596
-1.02421546248e-06
0.000266691015566
-1.07006518727e-06
0.000258042906511
-1.11244070015e-06
0.000249671334533
-1.15103148773e-06
0.000241567556059
-1.18553159615e-06
0.00023372315641
-1.21564675772e-06
0.000226130034284
-1.24110158409e-06
0.00021878038574
-1.26164683619e-06
0.00021166668807
-1.27706634914e-06
0.000204781683677
-1.28718361244e-06
0.000198118363965
-1.291867531e-06
0.000191669953591
-1.29103736503e-06
0.000185429895094
-1.28466640826e-06
0.000179391834259
-1.27278444124e-06
0.000173549606262
-1.25547862359e-06
0.000167897222902
-1.23289295152e-06
0.000162428860985
-1.20522609354e-06
0.000157138852054
-1.17272784994e-06
0.00015202167356
-1.13569420615e-06
0.000147071941363
-1.09446133674e-06
0.000142284403899
-1.04939865399e-06
0.000137653937547
-1.00090132381e-06
0.000133175543281
-9.49382403951e-07
0.000128844344565
-8.95265027211e-07
0.000124655586096
-8.3897477447e-07
0.000120604633362
-7.80932596353e-07
0.000116686972585
-7.21548364892e-07
0.000112898211178
-6.61215313941e-07
0.000109234078234
-6.00305305798e-07
0.000105690424869
-5.39165352616e-07
0.000102263224985
-4.78114011905e-07
9.89485724846e-05
-4.1744231412e-07
9.57426919822e-05