/*--------------------------------*- C++ -*----------------------------------*\
  =========                 |
  \\      /  F ield         | OpenFOAM: The Open Source CFD Toolbox
   \\    /   O peration     | Website:  https://openfoam.org
    \\  /    A nd           | Version:  7
     \\/     M anipulation  |
\*---------------------------------------------------------------------------*/
FoamFile
{
    version     2.0;
    format      ascii;
    class       surfaceScalarField;
    location    "420";
    object      phi;
}
// * * * * * * * * * * * * * * * * * * * * * * * * * * * * * * * * * * * * * //

dimensions      [0 3 -1 0 0 0 0];

internalField   nonuniform List<scalar> 
70777
(
0.000483070089662
-5.71171604543e-09
0.000483086424874
-1.63352055276e-08
0.000483112315771
-2.5890886889e-08
0.000483146807297
-3.44915154156e-08
0.000483189031037
-4.22237300952e-08
0.000483238187947
-4.91568956247e-08
0.00048329353567
-5.53477146604e-08
0.000483354378561
-6.08428741565e-08
0.000483420060133
-6.56815671715e-08
0.000483489957933
-6.98977837852e-08
0.000483563480171
-7.35222338948e-08
0.000483640063967
-7.65837811437e-08
0.000483719174538
-7.91105707319e-08
0.000483800305306
-8.11307567775e-08
0.000483882978318
-8.26730128852e-08
0.000483966745055
-8.37667309483e-08
0.000484051187153
-8.44421013419e-08
0.000484135917129
-8.47299770353e-08
0.000484220578826
-8.46617026687e-08
0.000484304847625
-8.42688087345e-08
0.000484388430349
-8.35827344004e-08
0.000484471064807
-8.26344792223e-08
0.00048455251912
-8.14543239189e-08
0.000484632590608
-8.00715226378e-08
0.000484711104673
-7.85140797616e-08
0.00048478791315
-7.68085262606e-08
0.000484862892913
-7.49797786832e-08
0.000484935943861
-7.30510120751e-08
0.000485006987442
-7.10435990706e-08
0.000485075964436
-6.89770721219e-08
0.000485142833549
-6.68691299075e-08
0.000485207569131
-6.47356725497e-08
0.000485270159965
-6.25908503583e-08
0.000485330607024
-6.04471596651e-08
0.000485388922495
-5.83154835676e-08
0.000485445127747
-5.62053598654e-08
0.000485499252206
-5.4124458346e-08
0.00048555133335
-5.20812508629e-08
0.000485601407738
-5.00743817309e-08
-4.81386359106e-08
0.000485649546299
0.000466808131399
-1.1195325668e-08
0.000466823841013
-3.20448111814e-08
0.000466848753902
-5.0803769199e-08
0.000466881957449
-6.76950522989e-08
0.000466922625326
-8.28915959943e-08
0.000466969997285
-9.65288440702e-08
0.000467023366636
-1.08717050994e-07
0.0004670820711
-1.19547329291e-07
0.000467145485414
-1.29095864091e-07
0.000467213015894
-1.37428257361e-07
0.000467284097109
-1.44603429125e-07
0.000467358190006
-1.5067667526e-07
0.000467434781278
-1.55701821372e-07
0.000467513383307
-1.59732785004e-07
0.000467593534826
-1.62824509344e-07
0.00046767480161
-1.65033516915e-07
0.000467756777511
-1.66417976744e-07
0.000467839085112
-1.67037582924e-07
0.000467921376539
-1.66953101566e-07
0.000468003333628
-1.66225906061e-07
0.000468084668222
-1.64917297249e-07
0.000468165121677
-1.63087945282e-07
0.000468244464579
-1.60797191186e-07
0.000468322495601
-1.58102560449e-07
0.000468399040731
-1.55059173564e-07
0.000468473951605
-1.51719417066e-07
0.000468547104379
-1.48132518996e-07
0.000468618397749
-1.44344401862e-07
0.000468687751609
-1.40397431085e-07
0.000468755104951
-1.36330433752e-07
0.000468820414435
-1.32178595895e-07
0.000468883652349
-1.27973610794e-07
0.000468944805184
-1.23743686031e-07
0.000469003871796
-1.19513795254e-07
0.000469060861982
-1.15305692241e-07
0.000469115795071
-1.11138474823e-07
0.000469168698108
-1.07027560975e-07
0.000469219606589
-1.02989758793e-07
0.000469268555392
-9.90232701235e-08
-9.51939805646e-08
0.000469315610752
0.00045109361257
-1.64603988257e-08
0.000451108683281
-4.71155179544e-08
0.000451132591518
-7.47119988205e-08
0.000451164474857
-9.95783859248e-08
0.000451203554856
-1.21971584766e-07
0.000451249117696
-1.42091673882e-07
0.000451300500701
-1.60100044649e-07
0.000451357082618
-1.76129232145e-07
0.000451418276057
-1.90289293049e-07
0.000451483521969
-2.02674152613e-07
0.000451552286062
-2.13367514759e-07
0.000451624056904
-2.22447496985e-07
0.000451698345103
-2.29990014296e-07
0.000451774683459
-2.36071117264e-07
0.000451852627517
-2.407685627e-07
0.00045193175665
-2.44162619968e-07
0.000452011675032
-2.46336356369e-07
0.000452092012873
-2.47375385436e-07
0.000452172427141
-2.47367369364e-07
0.000452252602483
-2.46401197659e-07
0.000452332251329
-2.44566144057e-07
0.000452411114301
-2.41950851219e-07
0.000452488959569
-2.38642459829e-07
0.000452565582748
-2.34725655739e-07
0.00045264080554
-2.30281966258e-07
0.000452714475241
-2.25389011005e-07
0.00045278646278
-2.20120057862e-07
0.000452856662039
-2.14543527677e-07
0.000452924987431
-2.08722820652e-07
0.000452991373222
-2.02716063185e-07
0.000453055770802
-1.96576170228e-07
0.000453118148173
-1.90350789689e-07
0.000453178487028
-1.84082535825e-07
0.000453236782557
-1.77809095669e-07
0.000453293040353
-1.7156348392e-07
0.000453347276767
-1.65374618192e-07
0.000453399515224
-1.59266044682e-07
0.000453449788947
-1.53263183767e-07
0.000453498129628
-1.47363984796e-07
-1.41666455727e-07
0.000453544602347
0.000435908077425
-2.14892706421e-08
0.000435922477342
-6.15154313683e-08
0.000435945334141
-9.75687941424e-08
0.00043597584184
-1.30086078006e-07
0.000436013276947
-1.59406688153e-07
0.000436056978585
-1.85793301863e-07
0.000436106334616
-2.09456068196e-07
0.000436160771297
-2.30565901505e-07
0.000436219745165
-2.49263149548e-07
0.000436282737118
-2.65666094998e-07
0.000436349248569
-2.79878952865e-07
0.000436418799295
-2.91998214648e-07
0.000436490926596
-3.02117300732e-07
0.000436565185347
-3.10329859899e-07
0.00043664114878
-3.16731979018e-07
0.000436718409614
-3.21423447454e-07
0.000436796581492
-3.24508213355e-07
0.000436875300326
-3.26094212346e-07
0.000436954225694
-3.26292712774e-07
0.000437033041849
-3.25217345948e-07
0.000437111458658
-3.22982921377e-07
0.000437189211978
-3.19704161776e-07
0.000437266063976
-3.15494417772e-07
0.00043734180279
-3.1046446055e-07
0.000437416242252
-3.04721377464e-07
0.000437489220881
-2.98367626781e-07
0.000437560601141
-2.91500252902e-07
0.000437630267912
-2.84210283168e-07
0.000437698127471
-2.7658229852e-07
0.000437764105596
-2.68694164478e-07
0.000437828146445
-2.60616920051e-07
0.000437890210469
-2.52414786762e-07
0.000437950273357
-2.44145299953e-07
0.000438008323844
-2.35859548088e-07
0.000438064362857
-2.27602343989e-07
0.000438118401377
-2.19413105166e-07
0.000438170459535
-2.11323988168e-07
0.000438220566113
-2.03369731523e-07
0.000438268750455
-1.95548109213e-07
-1.87991297284e-07
0.000438315075243
0.000421233724869
-2.62713055087e-08
0.00042124742243
-7.52129868741e-08
0.000421269179723
-1.19326083984e-07
0.000421298251883
-1.59158235949e-07
0.000421333976244
-1.95131042233e-07
0.00042137575084
-2.27567896362e-07
0.000421423019945
-2.5672516268e-07
0.000421475263011
-2.82808963506e-07
0.000421531985918
-3.05986044413e-07
0.000421592714468
-3.26394639232e-07
0.000421656990173
-3.44154647308e-07
0.000421724367791
-3.59375827377e-07
0.000421794414316
-3.72163817408e-07
0.000421866708985
-3.82624525046e-07
0.000421940844125
-3.90867109983e-07
0.00042201642649
-3.97005811084e-07
0.000422093078984
-4.01160700368e-07
0.000422170442425
-4.03457654014e-07
0.000422248177363
-4.04027643276e-07
0.000422325965637
-4.03005626101e-07
0.000422403511808
-4.00529085701e-07
0.000422480544112
-3.96736476754e-07
0.00042255681526
-3.91765557886e-07
0.000422632102633
-3.85751854903e-07
0.00042270620842
-3.78827157168e-07
0.000422778959044
-3.71118284912e-07
0.000422850204751
-3.62745949103e-07
0.000422919818365
-3.53823949405e-07
0.000422987694535
-3.4445845972e-07
0.000423053747966
-3.34747671459e-07
0.000423117912533
-3.24781472396e-07
0.000423180139114
-3.14641475385e-07
0.000423240394828
-3.04400997954e-07
0.000423298660559
-2.94125428012e-07
0.000423354930489
-2.83872248077e-07
0.000423409209438
-2.73692257733e-07
0.000423461512503
-2.63627000124e-07
0.00042351186396
-2.53721432919e-07
0.000423560289275
-2.43973360291e-07
-2.34551960493e-07
0.000423606849719
0.000407053344835
-3.07944498803e-08
0.000407066305385
-8.81735345422e-08
0.000407086910389
-1.39931082191e-07
0.000407114480438
-1.86728282465e-07
0.000407148418347
-2.290689501e-07
0.000407188185962
-2.67335504572e-07
0.000407233288856
-3.01828057106e-07
0.000407283264622
-3.32784718634e-07
0.000407337673299
-3.60394719733e-07
0.000407396090293
-3.84811623157e-07
0.000407458101562
-4.06165914948e-07
0.000407523300824
-4.24575079897e-07
0.000407591288201
-4.40151195713e-07
0.000407661670161
-4.53006476927e-07
0.000407734060295
-4.63257248158e-07
0.000407808080896
-4.71026405809e-07
0.00040788336486
-4.76444673123e-07
0.000407959557966
-4.7965075494e-07
0.000408036321053
-4.80790744886e-07
0.000408113332296
-4.80016865093e-07
0.00040819028905
-4.77485861487e-07
0.000408266909656
-4.73357080222e-07
0.000408342934588
-4.67790520164e-07
0.000408418127557
-4.60944822199e-07
0.000408492275814
-4.52975456094e-07
0.000408565190528
-4.44032999941e-07
0.000408636706265
-4.34261741653e-07
0.000408706680754
-4.23798438553e-07
0.000408774993663
-4.12771440598e-07
0.00040884154596
-4.01299972924e-07
0.000408906258165
-3.89493768108e-07
0.000408969069512
-3.77452820626e-07
0.000409029935828
-3.65267426373e-07
0.000409088828749
-3.53018351257e-07
0.000409145733343
-3.40776976037e-07
0.000409200647617
-3.28606523697e-07
0.000409253579492
-3.16559052933e-07
0.000409304548858
-3.04690781914e-07
0.000409353575271
-2.92999949437e-07
-2.81696242024e-07
0.000409400719633
0.000393350307389
-3.50460863621e-08
0.000393362495325
-1.00361463145e-07
0.000393381892817
-1.5932857198e-07
0.000393407889361
-2.12724821234e-07
0.00039343995685
-2.61136435782e-07
0.000393477624791
-3.05003445004e-07
0.000393520464169
-3.44667428311e-07
0.000393568074946
-3.80395495997e-07
0.000393620075759
-4.12395522932e-07
0.000393676096014
-4.40831878098e-07
0.000393735770529
-4.65840420986e-07
0.000393798736141
-4.87540692149e-07
0.000393864630041
-5.06045087253e-07
0.000393933089369
-5.2146580791e-07
0.000394003752
-5.33919872899e-07
0.000394076258073
-5.43532483945e-07
0.000394150252234
-5.50438828457e-07
0.000394225386141
-5.54784671255e-07
0.000394301321285
-5.56725885497e-07
0.000394377731665
-5.56427256927e-07
0.000394454306485
-5.54060678548e-07
0.000394530752419
-5.49803028851e-07
0.000394606795714
-5.43833814341e-07
0.000394682183692
-5.36332817415e-07
0.000394756686019
-5.274777819e-07
0.000394830095315
-5.17442313919e-07
0.00039490222756
-5.06393986838e-07
0.000394972921871
-4.94492765865e-07
0.000395042040139
-4.8188970875e-07
0.000395109466155
-4.68726002212e-07
0.000395175104665
-4.55132276648e-07
0.000395238880059
-4.41228220424e-07
0.000395300735051
-4.27122413054e-07
0.000395360629168
-4.12912462425e-07
0.000395418537196
-3.98685000119e-07
0.000395474447816
-3.84517118045e-07
0.00039552836138
-3.70472614762e-07
0.000395580291094
-3.56620454799e-07
0.000395630250764
-3.42959625731e-07
-3.29744852042e-07
0.000395678299419
0.000380108542844
-3.90134129842e-08
0.000380119921866
-1.1174048426e-07
0.000380138054676
-1.77461373101e-07
0.000380162402281
-2.37072423546e-07
0.000380192508381
-2.91242530864e-07
0.000380227973097
-3.40468157467e-07
0.000380268436054
-3.8513038434e-07
0.00038031356317
-4.25522604401e-07
0.000380363035503
-4.61867856557e-07
0.00038041654063
-4.94336995594e-07
0.000380473766489
-5.23066279403e-07
0.000380534397446
-5.48171640347e-07
0.000380598112018
-5.69759659158e-07
0.000380664582157
-5.87935939818e-07
0.000380733473711
-6.02811426619e-07
0.000380804447973
-6.14506740313e-07
0.000380877163949
-6.23154806384e-07
0.000380951281237
-6.28901953384e-07
0.000381026463167
-6.31907818722e-07
0.000381102380164
-6.3234424973e-07
0.000381178712978
-6.30393494645e-07
0.000381255155807
-6.26245854731e-07
0.000381331419039
-6.20097048016e-07
0.00038140723165
-6.12145424529e-07
0.000381482343088
-6.02589218644e-07
0.000381556524712
-5.91623934084e-07
0.000381629570703
-5.79439973996e-07
0.000381701298511
-5.6622056945e-07
0.00038177154886
-5.52140048713e-07
0.000381840185333
-5.37362469063e-07
0.000381907093665
-5.22040594276e-07
0.000381972180682
-5.0631522912e-07
0.000382035373115
-4.90314823867e-07
0.000382096616132
-4.7415547057e-07
0.000382155871893
-4.57940731716e-07
0.000382213118011
-4.4176322537e-07
0.000382268345473
-4.25700037594e-07
0.000382321559621
-4.09834595693e-07
0.000382372767152
-3.9416711882e-07
-3.79002709395e-07
0.000382422025002
0.000367312522802
-4.26838491829e-08
0.000367323057027
-1.22274698435e-07
0.000367339867993
-1.94272337739e-07
0.000367362490003
-2.59694425048e-07
0.000367390540277
-3.19292801622e-07
0.000367423691485
-3.73619361001e-07
0.000367461654179
-4.23093073228e-07
0.000367504162943
-4.68031367034e-07
0.000367550964507
-5.08669413503e-07
0.000367601808278
-5.45180765063e-07
0.000367656439476
-5.77697469442e-07
0.000367714594396
-6.06326557903e-07
0.000367775997532
-6.31162786751e-07
0.000367840360238
-6.52298643119e-07
0.000367907380841
-6.69832022409e-07
0.000367976745898
-6.83871794861e-07
0.000368048132468
-6.94541369593e-07
0.000368121211082
-7.0198056488e-07
0.000368195649276
-7.06346006767e-07
0.000368271115384
-7.07810354867e-07
0.000368347282466
-7.06560571487e-07
0.00036842383212
-7.02795505072e-07
0.000368500458074
-6.96722996824e-07
0.000368576869392
-6.88556737705e-07
0.000368652793228
-6.78513048929e-07
0.000368727977048
-6.66807747585e-07
0.000368802190299
-6.53653219879e-07
0.000368875225531
-6.39255792482e-07
0.00036894689896
-6.23813471332e-07
0.000369017050574
-6.07514073077e-07
0.000369085543757
-5.90533772177e-07
0.000369152264589
-5.73036048419e-07
0.000369217120763
-5.55170993095e-07
0.000369280040366
-5.37075061319e-07
0.000369340970329
-5.18870689835e-07
0.000369399875073
-5.00667957715e-07
0.000369456734114
-4.82559074976e-07
0.000369511543486
-4.64643957718e-07
0.00036956430104
-4.46924670353e-07
-4.29762986185e-07
0.000369615061322
0.000354947242124
-4.60454593656e-08
0.000354956897428
-1.31930001013e-07
0.000354972331599
-2.09706498441e-07
0.000354993153024
-2.80515847647e-07
0.000355019053141
-3.45192910705e-07
0.000355049778014
-4.04344230391e-07
0.000355085110388
-4.58425443397e-07
0.00035512485534
-5.07776313601e-07
0.00035516882771
-5.52641780963e-07
0.000355216841903
-5.93194952006e-07
0.000355268704186
-6.29559749362e-07
0.000355324207169
-6.61829532887e-07
0.000355383126087
-6.90081701366e-07
0.00035544521678
-7.14389327563e-07
0.00035551021515
-7.3483038835e-07
0.000355577838024
-7.51494661346e-07
0.000355647785134
-7.64488474436e-07
0.000355719742085
-7.73937508903e-07
0.00035579338403
-7.7998794727e-07
0.000355868379872
-7.82806191043e-07
0.000355944396726
-7.82577420416e-07
0.00035602110446
-7.79503233701e-07
0.000356098180099
-7.73798629702e-07
0.000356175311928
-7.65688561947e-07
0.000356252203172
-7.55404287375e-07
0.000356328575128
-7.43179698111e-07
0.00035640416971
-7.29247795961e-07
0.000356478751363
-7.138374405e-07
0.000356552108356
-6.97170457911e-07
0.000356624053467
-6.79459181381e-07
0.000356694424143
-6.60904441672e-07
0.000356763082135
-6.4169403724e-07
0.000356829912761
-6.22001613818e-07
0.000356894823803
-6.01986101226e-07
0.000356957744122
-5.81791004092e-07
0.000357018622277
-5.61546112879e-07
0.00035707742409
-5.41360883595e-07
0.000357134134254
-5.21354122576e-07
0.000357188740059
-5.01530471933e-07
-4.82315728605e-07
0.0003572412928
0.000342998201285
-4.90875178351e-08
0.000343006946738
-1.40675442011e-07
0.000343020953607
-2.23713365427e-07
0.000343039904249
-2.99466479812e-07
0.000343063563897
-3.68852554746e-07
0.000343091751772
-4.32532099406e-07
0.000343124322975
-4.90996642685e-07
0.00034316115386
-5.44607194225e-07
0.000343202128946
-5.9361686178e-07
0.00034324713003
-6.38196032988e-07
0.000343296027719
-6.78457432483e-07
0.000343348675012
-7.14476821446e-07
0.000343404902694
-7.46309376242e-07
0.000343464516391
-7.7400301964e-07
0.000343527295249
-7.97609238734e-07
0.000343592992086
-8.17191493218e-07
0.000343661334914
-8.32831295328e-07
0.000343732029607
-8.44632196188e-07
0.000343804763557
-8.52721891151e-07
0.000343879210063
-8.57252690992e-07
0.000343955033229
-8.58400580875e-07
0.000344031893131
-8.56363130403e-07
0.000344109451012
-8.51356505766e-07
0.000344187374303
-8.43611848569e-07
0.000344265341284
-8.33371263442e-07
0.000344343045234
-8.20883643298e-07
0.000344420197973
-8.06400531504e-07
0.000344496532725
-7.90172187591e-07
0.000344571806261
-7.72443990568e-07
0.000344645800356
-7.5345327285e-07
0.000344718322564
-7.33426647033e-07
0.000344789206391
-7.12577861214e-07
0.000344858310921
-6.91106142543e-07
0.000344925520011
-6.69195188278e-07
0.00034499074104
-6.47012032277e-07
0.000345053903654
-6.24708723875e-07
0.000345114957192
-6.02414422201e-07
0.00034517387268
-5.80269608913e-07
0.000345230624613
-5.58282405634e-07
-5.36951156139e-07
0.000345285260042
0.000331451389436
-5.18009074787e-08
0.000331459198628
-1.48484632395e-07
0.000331471734364
-2.36249089608e-07
0.000331488751833
-3.16483946706e-07
0.000331510088599
-3.90189311346e-07
0.000331535635628
-4.58079125471e-07
0.000331565319396
-5.20680403675e-07
0.000331599087194
-5.78374989655e-07
0.000331636893741
-6.31423403755e-07
0.000331678689746
-6.7999203356e-07
0.000331724412715
-7.2418039747e-07
0.000331773979661
-7.64043761902e-07
0.000331827281486
-7.99611195963e-07
0.000331884179007
-8.30900534432e-07
0.000331944500607
-8.57930833299e-07
0.00033200804148
-8.80732359593e-07
0.000332074564373
-8.99354182701e-07
0.000332143801715
-9.13869532086e-07
0.000332215458955
-9.24379125085e-07
0.000332289218913
-9.3101264371e-07
0.000332364746911
-9.33928574135e-07
0.000332441696418
-9.33312631953e-07
0.000332519714951
-9.29375034582e-07
0.000332598449989
-9.22346881456e-07
0.000332677554643
-9.12475913643e-07
0.000332756692913
-9.00021909458e-07
0.000332835544342
-8.8525195672e-07
0.000332913807972
-8.68435814782e-07
0.000332991205526
-8.49841540608e-07
0.000333067483778
-8.2973152291e-07
0.000333142416149
-8.08359014876e-07
0.000333215803536
-7.85965246499e-07
0.000333287474478
-7.62777081591e-07
0.000333357284726
-7.39005435092e-07
0.000333425116265
-7.14843569479e-07
0.000333490876206
-6.90468663805e-07
0.000333554494169
-6.66032382841e-07
0.000333615924671
-6.41700110966e-07
0.000333675126803
-6.17484535851e-07
-5.93966382139e-07
0.000333732142029
0.000320293267798
-5.41786213905e-08
0.00032030012008
-1.55336900796e-07
0.000320311149492
-2.47278499176e-07
0.000320326182021
-3.31516464245e-07
0.000320345124981
-4.0913226913e-07
0.000320367938569
-4.8089270449e-07
0.000320394618447
-5.47360278496e-07
0.000320425181336
-6.08937872051e-07
0.000320459651516
-6.65893581523e-07
0.000320498049074
-7.18389585852e-07
0.000320540380081
-7.66511400891e-07
0.000320586628472
-8.10292147951e-07
0.000320636749395
-8.49732113887e-07
0.000320690664082
-8.84815215886e-07
0.000320748256304
-9.15523049938e-07
0.000320809370451
-9.41846501194e-07
0.000320873811223
-9.63794948937e-07
0.000320941344885
-9.81403188575e-07
0.000321011701978
-9.94736211927e-07
0.000321084581321
-1.00389198207e-06
0.0003211596551
-1.00900234876e-06
0.000321236574775
-1.01023230203e-06
0.000321314977531
-1.00777778594e-06
0.000321394492988
-1.00186233449e-06
0.00032147474988
-9.92732801933e-07
0.000321555382447
-9.8065447186e-07
0.000321636036314
-9.65905820916e-07
0.000321716373697
-9.48773194211e-07
0.000321796077781
-9.29545621784e-07
0.000321874856226
-9.08509965688e-07
0.000321952443759
-8.85946545024e-07
0.00032202860387
-8.62125355198e-07
0.000322103129677
-8.37302886617e-07
0.000322175844046
-8.11719802172e-07
0.000322246598984
-7.85598506309e-07
0.000322315274809
-7.5914448676e-07
0.000322381777515
-7.32535087831e-07
0.000322446041707
-7.05964301584e-07
0.000322508007855
-6.79450682448e-07
-6.53668662608e-07
0.000322567710137
0.000309510753805
-5.62160247337e-08
0.00030951663527
-1.61218363589e-07
0.000309526133517
-2.56776733542e-07
0.000309539142339
-3.44525282924e-07
0.000309555635264
-4.25625183944e-07
0.000309575638061
-5.00895498244e-07
0.000309599212258
-5.70934467335e-07
0.000309626441246
-6.36166857615e-07
0.000309657417029
-6.9686935786e-07
0.000309692228329
-7.53200882563e-07
0.000309730950365
-8.05233431231e-07
0.000309773635973
-8.52977752469e-07
0.000309820307963
-8.96404098671e-07
0.000309870952774
-9.35460023056e-07
0.000309925515596
-9.70085866968e-07
0.000309983897061
-1.00022796055e-06
0.000310045951596
-1.02584947879e-06
0.000310111487473
-1.04693906035e-06
0.000310180268522
-1.06351725669e-06
0.000310252017423
-1.0756408775e-06
0.000310326420393
-1.08340531423e-06
0.00031040313306
-1.08694496456e-06
0.00031048178722
-1.08643194152e-06
0.000310561998177
-1.08207328731e-06
0.000310643372337
-1.07410695856e-06
0.000310725514741
-1.06279687223e-06
0.000310808036239
-1.04842731451e-06
0.000310890560062
-1.0312970153e-06
0.000310972727608
-1.0117131644e-06
0.000311054203271
-9.89985625612e-07
0.000311134678275
-9.66421545663e-07
0.000311213873464
-9.41320543053e-07
0.000311291541093
-9.14970512379e-07
0.000311367465679
-8.87644386946e-07
0.000311441463956
-8.5959678037e-07
0.000311513384439
-8.31064969179e-07
0.000311583104887
-8.02255532343e-07
0.000311650535895
-7.73395308446e-07
0.000311715595476
-7.44510261328e-07
-7.16381549526e-07
0.000311778308363
0.00029909120563
-5.79111998005e-08
0.000299096109902
-1.66122622059e-07
0.00029910406377
-2.64730598336e-07
0.000299115025069
-3.55486569763e-07
0.000299129029039
-4.39629150793e-07
0.000299146162395
-5.18028844572e-07
0.000299166548054
-5.91320122679e-07
0.000299190332147
-6.59950943338e-07
0.000299217671264
-7.24208471751e-07
0.000299248720762
-7.84250374014e-07
0.000299283624324
-8.4013699054e-07
0.000299322504531
-8.91857952937e-07
0.000299365454293
-9.39353858126e-07
0.000299412529329
-9.82535053076e-07
0.000299463741852
-1.02129838606e-06
0.000299519055719
-1.0555418227e-06
0.000299578383177
-1.08517693289e-06
0.000299641583371
-1.11013925031e-06
0.000299708462672
-1.13039655281e-06
0.000299778776828
-1.14595502851e-06
0.000299852234846
-1.15686332698e-06
0.000299928504422
-1.16321453656e-06
0.000300007218672
-1.16514618691e-06
0.000300087983833
-1.16283844461e-06
0.000300170387602
-1.15651072367e-06
0.000300254007721
-1.14641698709e-06
0.000300338420462
-1.13284005279e-06
0.000300423208683
-1.11608523222e-06
0.000300507969156
-1.09647363508e-06
0.000300592318982
-1.07433544789e-06
0.000300675900902
-1.05000346322e-06
0.000300758387464
-1.02380710259e-06
0.000300839483993
-9.96067039216e-07
0.000300918930449
-9.67090839688e-07
0.000300996502131
-9.37168460922e-07
0.000301072009862
-9.06572698455e-07
0.000301145297633
-8.7554330228e-07
0.000301216247092
-8.44344765014e-07
0.000301284749099
-8.13012266559e-07
-7.82448651367e-07
0.000301350816202
0.00028902240731
-5.9265017379e-08
0.00028902633601
-1.70051319464e-07
0.000289032744818
-2.7113939254e-07
0.000289041651086
-3.6439283501e-07
0.000289053146519
-4.51124572423e-07
0.000289067373215
-5.32255536617e-07
0.000289084510022
-6.08456920532e-07
0.000289104760707
-6.80201624614e-07
0.000289128342078
-7.47789835609e-07
0.000289155472765
-8.11381057501e-07
0.000289186362879
-8.7102709797e-07
0.000289221204237
-9.2669930824e-07
0.000289260161082
-9.78310696829e-07
0.00028930336144
-1.02573540856e-06
0.000289350889418
-1.06882635833e-06
0.000289402778673
-1.10743107478e-06
0.000289459007368
-1.14140562401e-06
0.000289519494819
-1.17062669648e-06
0.000289584100044
-1.19500177429e-06
0.000289652622333
-1.21447731259e-06
0.000289724803821
-1.22904481052e-06
0.000289800334007
-1.23874471781e-06
0.000289878855997
-1.24366817248e-06
0.000289959974199
-1.24395664328e-06
0.000290043263109
-1.23979962866e-06
0.000290128276767
-1.23143064182e-06
0.000290214558491
-1.21912177325e-06
0.000290301650439
-1.20317717686e-06
0.000290389102647
-1.18392584007e-06
0.000290476481219
-1.16171401678e-06
0.000290563375417
-1.13689765766e-06
0.000290649403496
-1.10983517964e-06
0.000290734217195
-1.08088073574e-06
0.000290817504893
-1.05037853567e-06
0.000290898993372
-1.01865693745e-06
0.000290978448845
-9.86028169944e-07
0.000291055674992
-9.52769446281e-07
0.000291130518565
-9.19188336575e-07
0.00029120283763
-8.8533132962e-07
-8.52240136615e-07
0.000291272629116
0.00027929255419
-6.02812888392e-08
0.00027929551717
-1.73014285115e-07
0.000279300393192
-2.76015410598e-07
0.000279307254062
-3.71253693187e-07
0.000279316242018
-4.60112523925e-07
0.000279327548277
-5.43561785162e-07
0.00027934140125
-6.22309889877e-07
0.000279358056227
-6.96856592621e-07
0.000279377784649
-7.67518254946e-07
0.000279400863739
-8.34460138785e-07
0.00027942756654
-8.97729896563e-07
0.000279458152134
-9.5728489447e-07
0.000279492855855
-1.0130144159e-06
0.000279531879769
-1.06475931555e-06
0.000279575383626
-1.11233021374e-06
0.0002796234767
-1.15552414324e-06
0.000279676210781
-1.1941397024e-06
0.000279733574744
-1.22799065525e-06
0.000279795490949
-1.25691797649e-06
0.00027986181376
-1.2808001186e-06
0.00027993233029
-1.29956133652e-06
0.000280006763441
-1.31317786505e-06
0.000280084777112
-1.32168183844e-06
0.000280165983366
-1.3251628935e-06
0.000280249951245
-1.32376750358e-06
0.000280336216789
-1.31769618207e-06
0.000280424293816
-1.30719879674e-06
0.000280513684954
-1.29256831167e-06
0.000280603892458
-1.27413334097e-06
0.000280694428369
-1.25224992472e-06
0.000280784823661
-1.22729294673e-06
0.000280874636093
-1.19964760869e-06
0.000280963456585
-1.16970122574e-06
0.000281050914066
-1.13783601326e-06
0.00028113667864
-1.10442150997e-06
0.000281220463808
-1.06981333537e-06
0.000281302025119
-1.03433075611e-06
0.000281381167251
-9.98330466195e-07
0.000281457708566
-9.61872643164e-07
-9.26157598341e-07
0.000281531626029
0.000269890239126
-6.09666435956e-08
0.00026989225439
-1.75029545974e-07
0.000269895622894
-2.79383900854e-07
0.000269900465354
-3.76096149175e-07
0.000269906968181
-4.66615339093e-07
0.000269915364853
-5.51958453075e-07
0.000269925926302
-6.32871328582e-07
0.000269938952317
-7.09882604169e-07
0.000269954762333
-7.8332826205e-07
0.000269973686181
-8.53383983679e-07
0.000269996054917
-9.20098623511e-07
0.000270022191307
-9.83421282508e-07
0.000270052399937
-1.04322303857e-06
0.000270086957022
-1.09931639812e-06
0.000270126100294
-1.15147347974e-06
0.000270170019255
-1.19944310222e-06
0.00027021884625
-1.24296669265e-06
0.000270272648761
-1.28179316412e-06
0.000270331423388
-1.31569259906e-06
0.00027039509187
-1.34446859717e-06
0.000270463499477
-1.36796893959e-06
0.000270536415936
-1.38609432054e-06
0.000270613538952
-1.39880485041e-06
0.000270694500215
-1.4061241524e-06
0.00027077887365
-1.40814093432e-06
0.000270866185527
-1.40500805543e-06
0.00027095592595
-1.39693921605e-06
0.000271047561171
-1.38420353014e-06
0.000271140546163
-1.36711832835e-06
0.000271234336873
-1.34604063305e-06
0.000271328401694
-1.32135776354e-06
0.000271422231679
-1.2934775917e-06
0.000271515349245
-1.26281878806e-06
0.000271607315146
-1.22980191277e-06
0.00027169773352
-1.19483988092e-06
0.000271786255701
-1.1583355145e-06
0.000271872579853
-1.12065490577e-06
0.000271956459934
-1.08221054635e-06
0.000272037666251
-1.04307895776e-06
-1.00464171807e-06
0.000272116150372
0.000260804438963
-6.13304980579e-08
0.000260805532382
-1.76122949866e-07
0.000260807431223
-2.81282738768e-07
0.000260810299325
-3.78964238236e-07
0.000260814360594
-4.70676603252e-07
0.000260819883575
-5.57481423532e-07
0.000260827174147
-6.4016189627e-07
0.000260836568914
-7.19277361031e-07
0.000260848427715
-7.95187059913e-07
0.00026086312588
-8.68082139784e-07
0.000260881046122
-9.38018862052e-07
0.000260902569746
-1.00494489851e-06
0.000260928066957
-1.06872024725e-06
0.00026095788645
-1.12913588374e-06
0.000260992344484
-1.18593151176e-06
0.000261031713845
-1.23881245718e-06
0.000261076213071
-1.28746591694e-06
0.000261125996489
-1.33157657751e-06
0.000261181145556
-1.3708416637e-06
0.000261241662057
-1.40498509437e-06
0.000261307463606
-1.43377048601e-06
0.000261378381833
-1.45701254317e-06
0.000261454163474
-1.47458648837e-06
0.000261534474455
-1.48643512967e-06
0.000261618906833
-1.49257330888e-06
0.000261706988328
-1.49308954618e-06
0.000261798193985
-1.48814487002e-06
0.000261891959411
-1.47796895215e-06
0.000261987694916
-1.46285383024e-06
0.000262084799902
-1.44314561563e-06
0.000262182676824
-1.41923468272e-06
0.00026228074415
-1.39154491457e-06
0.00026237844782
-1.36052245586e-06
0.000262475270904
-1.32662499317e-06
0.00026257074104
-1.29031001535e-06
0.00026266443642
-1.25203089209e-06
0.000262755986821
-1.21220530532e-06
0.000262845085048
-1.17130877102e-06
0.000262931443115
-1.12943702333e-06
-1.08817893711e-06
0.000263014980335
0.000252024501486
-6.13847715667e-08
0.000252024706247
-1.76327707577e-07
0.000252025185146
-2.81761623206e-07
0.000252026139182
-3.79918270357e-07
0.000252027823014
-4.72360422868e-07
0.000252030532873
-5.60191277866e-07
0.00025203460175
-6.44230763335e-07
0.000252040394878
-7.25070484433e-07
0.000252048304233
-8.03096406097e-07
0.000252058742513
-8.78520416127e-07
0.000252072136492
-9.5141283123e-07
0.000252088919269
-1.02172767266e-06
0.000252109521273
-1.08932224353e-06
0.000252134360006
-1.15397461454e-06
0.000252163828792
-1.21540028994e-06
0.000252198284763
-1.27326842733e-06
0.000252238036565
-1.32721771193e-06
0.000252283332222
-1.37687223345e-06
0.000252334347848
-1.42185728468e-06
0.000252391177757
-1.46181500221e-06
0.00025245382667
-1.49641939481e-06
0.000252522204525
-1.5253903956e-06
0.000252596124389
-1.5485063487e-06
0.000252675303727
-1.56561446444e-06
0.00025275936914
-1.57663871831e-06
0.000252847864441
-1.58158484346e-06
0.000252940261731
-1.58054215575e-06
0.000253035974947
-1.57368216549e-06
0.000253134375206
-1.56125408506e-06
0.000253234807147
-1.54357755403e-06
0.000253336605493
-1.52103302593e-06
0.000253439111025
-1.49405044397e-06
0.000253541685284
-1.46309671096e-06
0.00025364372348
-1.4286631873e-06
0.00025374466501
-1.39125154313e-06
0.000253844002261
-1.3513681407e-06
0.000253941283655