/*--------------------------------*- C++ -*----------------------------------*\
  =========                 |
  \\      /  F ield         | OpenFOAM: The Open Source CFD Toolbox
   \\    /   O peration     | Website:  https://openfoam.org
    \\  /    A nd           | Version:  7
     \\/     M anipulation  |
\*---------------------------------------------------------------------------*/
FoamFile
{
    version     2.0;
    format      ascii;
    class       surfaceScalarField;
    location    "732";
    object      phi;
}
// * * * * * * * * * * * * * * * * * * * * * * * * * * * * * * * * * * * * * //

dimensions      [0 3 -1 0 0 0 0];

internalField   nonuniform List<scalar> 
76358
(
-5.26768240663e-09
0.000446064569848
-1.03408619806e-08
0.000432207604805
-1.52304528569e-08
0.000418781109316
-1.99215523286e-08
0.000405771685461
-2.44059576188e-08
0.000393166383168
-2.86743836815e-08
0.000380952647169
-3.27170714788e-08
0.0003691183127
-3.65240389964e-08
0.000357651593227
-4.00852959832e-08
0.000346541068467
-4.3391111052e-08
0.000335775673269
-4.64323674705e-08
0.000325344686543
-4.92008627577e-08
0.000315237720543
-5.16896466788e-08
0.000305444710634
-5.38932686368e-08
0.000295955905078
-5.58080345211e-08
0.000286761855392
-5.74321530975e-08
0.000277853406844
-5.87658790643e-08
0.000269221689227
-5.98115394627e-08
0.000260858108035
-6.05735577676e-08
0.000252754335827
-6.10583649208e-08
0.000244902303777
-6.12743196211e-08
0.000237294193776
-6.12315254728e-08
0.000229922430417
-6.09416766385e-08
0.000222779673514
-6.04178119409e-08
0.00021585881074
-5.96741208416e-08
0.000209152950522
-5.87256675293e-08
0.00020265541517
-5.75881912284e-08
0.000196359734224
-5.62778296106e-08
0.00019025963801
-5.48109412575e-08
0.000184349051422
-5.32038507168e-08
0.00017862208786
-5.14727119672e-08
0.000173073043417
-4.96332890702e-08
0.000167696391196
-4.77008703468e-08
0.000162486775842
-4.56900903639e-08
0.000157439008236
-4.36148972406e-08
0.000152548060317
-4.14884158604e-08
0.000147809060173
-3.93229637656e-08
0.000143217287106
-3.7129952754e-08
0.000138768167063
-3.49199456055e-08
0.000134457268024
-3.27025923298e-08
0.000130280295566
-3.04867177075e-08
0.000126233088804
-2.82802881238e-08
0.000122311615954
-2.60905214988e-08
0.000118511970629
-2.39238804756e-08
0.000114830367769
-2.17861982587e-08
0.000111263139893
-1.96826920825e-08
0.000107806733629
-1.76181034429e-08
0.0001044577059
-1.55967311609e-08
0.000101212720806
-1.36225327882e-08
9.80685460096e-05
-1.16990113387e-08
9.50220495293e-05
-9.82992725554e-09
9.20701973652e-05
8.92100436188e-05
-8.01309265306e-09
-1.5066263664e-08
0.00044607963613
-2.96023879319e-08
0.000432222140942
-4.35996652753e-08
0.000418795106609
-5.70332652094e-08
0.000405785119073
-6.98788063769e-08
0.000393179228726
-8.21094675165e-08
0.000380964877842
-9.36977306302e-08
0.00036912990098
-1.04615322207e-07
0.000357662510831
-1.14833780396e-07
0.000346551286941
-1.24325324874e-07
0.000335785164827
-1.33063756007e-07
0.000325353424991
-1.41025409942e-07
0.00031524568221
-1.48190029769e-07
0.000305451875271
-1.54541579254e-07
0.000295962256641
-1.6006889356e-07
0.000286767382723
-1.64766211217e-07
0.000277858104175
-1.68633508373e-07
0.000269225556541
-1.71676692296e-07
0.000260861151234
-1.73907598752e-07
0.00025275656675
-1.75343856802e-07
0.000244903740051
-1.76008587462e-07
0.000237294858524
-1.75929998697e-07
0.000229922351846
-1.75140863093e-07
0.000222778884397
-1.73677930031e-07
0.000215857347825
-1.71581278202e-07
0.000209150853889
-1.68893640054e-07
0.000202652727552
-1.65659724155e-07
0.000196356500327
-1.61925537275e-07
0.000190255903844
-1.57737756153e-07
0.00018434486366
-1.53143112557e-07
0.000178617493238
-1.48187870862e-07
0.000173068088195
-1.42917315902e-07
0.000167691120665
-1.37375367491e-07
0.000162481233913
-1.31604187796e-07
0.000157433237081
-1.25643940173e-07
0.000152542100088
-1.19532514625e-07
0.000147802948773
-1.13305418972e-07
0.000143211060028
-1.06995610123e-07
0.000138761857278
-1.00633491487e-07
0.000134450905921
-9.42468324322e-08
0.000130273908928
-8.78608376262e-08
0.000126226702824
-8.14981332032e-08
0.00012230525327
-7.51788753606e-08
0.000118505651386
-6.89207780142e-08
0.00011482410969
-6.27392331342e-08
0.000111256958362
-5.66473530438e-08
0.000107800641767
-5.06560788497e-08
0.000104451714639
-4.47742287814e-08
0.000101206838973
-3.90086517262e-08
9.80627804454e-05
-3.33641400943e-08
9.50164050349e-05
-2.78427018642e-08
9.20646759384e-05
8.92046556007e-05
-2.24546684445e-08
-2.38801157769e-08
0.000446103516257
-4.69315584333e-08
0.000432245192399
-6.91356401943e-08
0.000418817310706
-9.04557207477e-08
0.000405806439167
-1.108547411e-07
0.000393199627761
-1.30292136633e-07
0.000380984315251
-1.48725524116e-07
0.000369148334381
-1.66110613313e-07
0.000357679895934
-1.82402369464e-07
0.000346567578711
-1.97556360291e-07
0.000335800318831
-2.11530237145e-07
0.000325367398881
-2.24285242575e-07
0.00031525843723
-2.35787667045e-07
0.000305463377708
-2.46010147025e-07
0.000295972479136
-2.54932792742e-07
0.000286776305382
-2.62544054049e-07
0.000277865715452
-2.6884136219e-07
0.000269231853862
-2.7383146498e-07
0.000260866141353
-2.77530539658e-07
0.000252760265838
-2.79964002403e-07
0.000244906173531
-2.81166140986e-07
0.000237296060676
-2.81179482191e-07
0.000229922365205
-2.80054057548e-07
0.000222777758986
-2.77846460617e-07
0.000215855140248
-2.74618892013e-07
0.000209147626334
-2.70438055768e-07
0.000202648546737
-2.65374132772e-07
0.000196351436418
-2.59499655412e-07
0.00019025002939
-2.52888537472e-07
0.000184338252556
-2.45615037254e-07
0.000178610219762
-2.37752937431e-07
0.000173060226109
-2.29374667994e-07
0.000167682742421
-2.20550691133e-07
0.000162472409949
-2.11348816427e-07
0.000157424035234
-2.01833809578e-07
0.000152532585094
-1.9206690251e-07
0.000147793181893
-1.82105613472e-07
0.00014320109875
-1.72003437715e-07
0.000138751755128
-1.61809844446e-07
0.000134440712338
-1.51570126589e-07
0.000130263669233
-1.413255297e-07
0.000126216458236
-1.31113237855e-07
0.000122295040997
-1.20966593757e-07
0.000118495504751
-1.10915196586e-07
0.00011481405831
-1.00985186007e-07
0.00011124702836
-9.11994308401e-08
0.000107790856027
-8.15778579645e-08
0.000104442093076
-7.21376875274e-08
0.000101197398818
-6.28938489983e-08
9.80535366162e-05
-5.38595209245e-08
9.50073707212e-05
-4.5046290367e-08
9.20558627162e-05
8.91960709686e-05
-3.64616458402e-08
-3.18130576381e-08
0.000446135329329
-6.25343043534e-08
0.000432275913664
-9.21413076499e-08
0.000418846917719
-1.20590905165e-07
0.000405834888786
-1.47837161533e-07
0.000393226874025
-1.73829359812e-07
0.000381010307469
-1.98513215748e-07
0.000369173018244
-2.21830804524e-07
0.000357703213541
-2.43722316209e-07
0.00034658947023
-2.6412778521e-07
0.000335820724318
-2.8298916189e-07
0.000325386260266
-3.00252338553e-07
0.000315275700423
-3.15869200513e-07
0.000305478994579
-3.29799416251e-07
0.000295986409368
-3.42012076073e-07
0.000286788518051
-3.52486950108e-07
0.000277876190343
-3.61215495466e-07
0.000269240582418
-3.68201435754e-07
0.00026087312731
-3.7346106006e-07
0.000252765525474
-3.77023109866e-07
0.000244909735598
-3.7892841194e-07
0.00023729796599
-3.7922916446e-07
0.000229922665974
-3.7798803457e-07
0.000222776517869
-3.75277006848e-07
0.000215852429237
-3.71176127863e-07
0.000209143525469
-3.65772112163e-07
0.000202643142737
-3.59156929162e-07
0.00019634482125
-3.51426357271e-07
0.000190242298834
-3.42678588849e-07
0.000184329504803
-3.3301289075e-07
0.00017860055408
-3.22528361497e-07
0.000173049741597
-3.11322809258e-07
0.000167671536885
-2.99491744206e-07
0.000162460578903
-2.87127534723e-07
0.00015741167104
-2.74318668754e-07
0.000152519776248
-2.61149203344e-07
0.000147780012443
-2.4769829094e-07
0.000143187647858
-2.34039901448e-07
0.000138738096753
-2.20242585013e-07
0.000134426915041
-2.06369420779e-07
0.000130249796082
-1.92477975162e-07
0.000126202566808
-1.78620417999e-07
0.000122281183452
-1.64843627703e-07
0.000118481727975
-1.51189413688e-07
0.000114800404107
-1.37694714478e-07
0.000111233533675
-1.24391869314e-07
0.000107777553194
-1.11308858974e-07
0.000104429010079
-9.84695504425e-08
0.000101184559521
-8.58938773747e-08
9.80409609564e-05
-7.35982353219e-08
9.49950750921e-05
-6.15955528722e-08
9.20438600478e-05
8.9184363906e-05
-4.98884776314e-08
-3.89446503562e-08
0.000446174273995
-7.65700044362e-08
0.000432313539028
-1.12853756062e-07
0.000418883201493
-1.47752108168e-07
0.000405869787146
-1.81215116961e-07
0.000393260337058
-2.13185901501e-07
0.00038104227826
-2.43601351303e-07
0.000369203433716
-2.7239246647e-07
0.000357732004661
-2.9948643044e-07
0.000346616564214
-3.24808859935e-07
0.000335846046752
-3.48286270361e-07
0.000325409737695
-3.69848769544e-07
0.000315297262927
-3.89432538202e-07
0.000305498578366
-4.06982281848e-07
0.000296003959117
-4.22453275797e-07
0.000286803989063
-4.3581321208e-07
0.000277889550285
-4.47043524327e-07
0.000269251812748
-4.56140432668e-07
0.000260882224225
-4.63115424005e-07
0.000252772500483
-4.679954465e-07
0.000244914615627
-4.70822561907e-07
0.000237300793124
-4.71653368223e-07
0.000229923496788
-4.70557954079e-07
0.000222775422473
-4.67618722981e-07
0.000215849490013
-4.6292885476e-07
0.00020913883562
-4.56590756921e-07
0.000202636804647
-4.48714268499e-07
0.00019633694478
-4.39414972912e-07
0.000190232999546
-4.2881236878e-07
0.000184318902218
-4.17028250223e-07
0.00017858876997
-4.04185026735e-07
0.000173036898393
-3.9040432562e-07
0.000167657756192
-3.75805583305e-07
0.000162445980181
-3.60504963789e-07
0.00015739637043
-3.446142815e-07
0.000152503885586
-3.28240270409e-07
0.000147763638441
-3.1148384696e-07
0.000143170891455
-2.94439714325e-07
0.000138721052629
-2.77195937245e-07
0.000134409671284
-2.59833831031e-07
0.000130232433984
-2.42427798732e-07
0.000126185160793
-2.25045436244e-07
0.000122263801098
-2.07747573496e-07
0.000118464430128
-1.90588527341e-07
0.000114783245069
-1.73616288318e-07
0.00011121656145
-1.56872864588e-07
0.000107760809779
-1.40394575219e-07
0.000104412531803
-1.24212454394e-07
0.000101168377409
-1.08352549759e-07
9.80251010653e-05
-9.28364815924e-08
9.49795590346e-05
-7.76821360205e-08
9.2028705716e-05
8.91695792578e-05
-6.28974770257e-08
-4.5338971178e-08
0.000446219612979
-8.91636339458e-08
0.00043235736371
-1.31457855742e-07
0.000418925495725
-1.72182342102e-07
0.000405910511655
-2.11288139342e-07
0.000393299442864
-2.48716242299e-07
0.000381079706386
-2.84398129798e-07
0.00036923911561
-3.18256354311e-07
0.000357765862907
-3.50207140519e-07
0.000346648515005
-3.80162843425e-07
0.000335876002474
-4.08035059413e-07
0.000325437609915
-4.33737679044e-07
0.000315322965565
-4.57190045317e-07
0.000305522030737
-4.78319820106e-07
0.000296025088909
-4.97065709953e-07
0.000286822734958
-5.13379716045e-07
0.000277905864308
-5.27229090433e-07
0.000269265662128
-5.38597710702e-07
0.000260893592862
-5.47487091028e-07
0.00025278138987
-5.53916778936e-07
0.000244921045332
-5.57924396022e-07
0.000237304800747
-5.59565099251e-07
0.000229925137508
-5.58910758372e-07
0.000222774768139
-5.56048643733e-07
0.000215846627916
-5.51079946941e-07
0.000209133866929
-5.44117935409e-07
0.000202629842653
-5.35286077062e-07
0.000196328112928
-5.24715932403e-07
0.000190222429419
-5.12545150376e-07
0.000184306731443
-4.98915352971e-07
0.00017857514019
-4.83970234878e-07
0.000173021953282
-4.67853645742e-07
0.000167641639621
-4.50707965157e-07
0.000162428834508
-4.32672518859e-07
0.000157378335001
-4.13882329335e-07
0.000152485095404
-3.94466931336e-07
0.00014774422306
-3.74549531175e-07
0.000143150974063
-3.54246227173e-07
0.000138700749342
-3.33665556559e-07
0.00013438909062
-3.12908083705e-07
0.000130211676527
-2.92066279246e-07
0.000126164318996
-2.71224414889e-07
0.000122242959248
-2.5045870167e-07
0.000118443664422
-2.29837421421e-07
0.000114762623802
-2.09421249348e-07
0.000111196145286
-1.89263549245e-07
0.000107740652091
-1.69410810716e-07
0.000104392679072
-1.4990306171e-07
0.000101148869672
-1.30774290861e-07
9.80059723031e-05
-1.12052830301e-07
9.49608375861e-05
-9.37626641218e-08
9.20104155586e-05
8.91517325666e-05
-7.59159614207e-08
-5.10484024736e-08
0.000446270661395
-1.00417104461e-07
0.000432406732422
-1.48102977097e-07
0.000418973181617
-1.94076511033e-07
0.000405956485199
-2.38294479192e-07
0.000393343660855
-2.80699893503e-07
0.000381122111809
-3.21222239254e-07
0.000369279637977
-3.59778590094e-07
0.000357804419264
-3.96276366523e-07
0.000346685012802
-4.30616257799e-07
0.00033591034237
-4.62695641764e-07
0.000325469689318
-4.92412221806e-07
0.00031535268215
-5.1966755945e-07
0.000305549286091
-5.44370601397e-07
0.000296049791956
-5.66440841096e-07
0.000286844805214
-5.85811255782e-07
0.000277925234729
-6.02430710674e-07
0.0002692822816
-6.16265996606e-07
0.000260907428154
-6.27303235357e-07
0.000252792427125
-6.35548856837e-07
0.00024492929096
-6.41029916166e-07
0.000237310281823
-6.43793998413e-07
0.000229927901597
-6.43908506056e-07
0.000222774882663
-6.41459617341e-07
0.000215844179033
-6.36550728647e-07
0.000209128958057
-6.29300698239e-07
0.000202622592629
-6.19841712526e-07
0.000196318653959
-6.08317106643e-07
0.000190210904819
-5.94878956821e-07
0.00018429329331
-5.79685775853e-07
0.000178559947015
-5.62900116566e-07
0.000173005167639
-5.44686402252e-07
0.000167623425912
-5.25208770585e-07
0.000162409356892
-5.04629229938e-07
0.000157357755466
-4.83105896072e-07
0.000152463572086
-4.60791585286e-07
0.000147721908756
-4.37832516248e-07
0.000143128015009
-4.14367374634e-07
0.000138677284207
-3.90526483338e-07
0.000134365249744
-3.66431313034e-07
0.000130187581363
-3.42194073743e-07
0.000126140081771
-3.17917604691e-07
0.000122218682785
-2.9369530989e-07
0.000118419442141
-2.6961133941e-07
0.000114738539839
-2.45740781223e-07
0.00011117227474
-2.22150038587e-07
0.000107717061355
-1.98897185597e-07
0.000104369426232
-1.76032484324e-07
0.000101126004979
-1.53598797958e-07
9.79835386288e-05
-1.31631853198e-07
9.49388706501e-05
-1.10162186799e-07
9.19889459041e-05
8.9130775805e-05
-8.92054162601e-08
-5.61159880366e-08
0.000446326777395
-1.10414646686e-07
0.000432461031097
-1.62912026752e-07
0.000419025679007
-2.13593613476e-07
0.000406007166806
-2.62426595832e-07
0.000393392493847
-3.09359983358e-07
0.000381169045219
-3.54324899114e-07
0.000369324602902
-3.97235962449e-07
0.000357847330348
-4.37994373512e-07
0.000346725771219
-4.76491000112e-07
0.000335948839016
-5.12610285879e-07
0.000325505808609
-5.46234141386e-07
0.000315386306023
-5.77246045305e-07
0.000305580298001
-6.05534944011e-07
0.000296078080872
-6.30999066742e-07
0.000286870269343
-6.53549326829e-07
0.000277947785005
-6.73112437688e-07
0.000269301844717
-6.89633454241e-07
0.000260923949187
-7.03077893711e-07
0.000252805871571
-7.1343318275e-07
0.000244939646265
-7.20709623173e-07
0.00023731755827
-7.24940655698e-07
0.000229932132645
-7.26182659911e-07
0.000222776124673
-7.24514097887e-07
0.000215842510487
-7.20034282799e-07
0.000209124478248
-7.12861600408e-07
0.000202615419962
-7.03131497251e-07
0.000196308923862
-6.90994072867e-07
0.000190198767411
-6.76611606636e-07
0.000184278910849
-6.60155853467e-07
0.000178543491278
-6.41805439673e-07
0.000172986817231
-6.2174317937e-07
0.000167603363668
-6.00153629768e-07
0.000162387767349
-5.77220685238e-07
0.000157334822537
-5.53125506758e-07
0.000152439476914
-5.28044565069e-07
0.000147696827829
-5.02148068513e-07
0.000143102118519
-4.75598535851e-07
0.000138650734689
-4.48549759795e-07
0.000134338200974
-4.21145910877e-07
0.000130160177529
-3.93521004683e-07
0.000126112456872
-3.65798480368e-07
0.000122190960275
-3.38091093621e-07
0.000118391734761
-3.10500879929e-07
0.000114710949638
-2.83119375158e-07
0.000111144893243
-2.56027863768e-07
0.000107689969857
-2.29297815334e-07
0.00010434269619
-2.02991343985e-07
0.00010109969852
-1.77161801704e-07
9.79577090937e-05
-1.51853758697e-07
9.49135626189e-05
-1.27105823194e-07
9.19641979755e-05
8.9106608402e-05
-1.02938409507e-07
-6.05778363296e-08
0.000446387355243
-1.19226751943e-07
0.000432519680022
-1.75987262602e-07
0.000419082439534
-2.30864741613e-07
0.000406062044295
-2.83841123293e-07
0.00039344547025
-3.34875392238e-07
0.000381220079497
-3.83903871655e-07
0.000369373631403
-4.30842032129e-07
0.000357894268517
-4.75587622637e-07
0.00034677051683
-5.18024086109e-07
0.000335991275487
-5.58024627416e-07
0.000325545809169
-5.95456499637e-07
0.000315423737902
-6.30185356167e-07
0.000305615026875
-6.62079676437e-07
0.000296109975199
-6.91014960704e-07
0.000286899204643
-7.16877782569e-07
0.000277973647834
-7.39569409501e-07
0.000269324536359
-7.59009090097e-07
0.000260943388874
-7.75136749534e-07
0.000252821999246
-7.87915215203e-07
0.000244952424737
-7.97331743306e-07
0.000237326974814
-8.0339900922e-07
0.000229938199918
-8.06155362245e-07
0.000222778881042
-8.05664557747e-07
0.000215842019689
-8.02014795563e-07
0.000209120828502
-7.95317326593e-07
0.0002026087225
-7.85704478659e-07
0.00019629931103
-7.73327401846e-07
0.00019018639034
-7.58353395227e-07
0.000184263936858
-7.40963136899e-07
0.000178526101025
-7.21347676423e-07
0.000172967201786
-6.99705514977e-07
0.000167581721512
-6.762396171e-07
0.000162364301466
-6.51154666742e-07
0.000157309737593
-6.24654388472e-07
0.000152412976651
-5.96939223139e-07
0.00014766911267
-5.68204153928e-07
0.000143073383464
-5.38636944003e-07
0.000138621167485
-5.08416560472e-07
0.000134307980605
-4.77712017892e-07
0.000130129472993
-4.46681402984e-07
0.000126081426271
-4.15471289194e-07
0.000122159750168
-3.84216298962e-07
0.000118360479785
-3.53039001757e-07
0.000114679772348
-3.22049912156e-07
0.000111113904166
-2.91347761954e-07
0.000107659267713
-2.61019806295e-07
0.000104312368247
-2.31142354973e-07
0.000101069821075
-2.01781382466e-07
9.79283481325e-05
-1.72992298328e-07
9.4884773542e-05
-1.44823619525e-07
9.1936029307e-05
8.90790868678e-05
-1.17302078161e-07
-6.44653160803e-08
0.000446451820569
-1.26914174033e-07
0.000432582128894
-1.87416184499e-07
0.000419142941553
-2.46000847007e-07
0.000406120628975
-3.02668833239e-07
0.000393502138246
-3.57392794554e-07
0.000381274803479
-4.10117869672e-07
0.000369426356488
-4.60763702584e-07
0.000357944914371
-5.09227747438e-07
0.000346818980885
-5.5538874509e-07
0.000336037436504
-5.9911103714e-07
0.000325589531471
-6.40248940725e-07
0.000315464875822
-6.78651436821e-07
0.00030565342938
-7.14166825118e-07
0.000296145490601
-7.4664739466e-07
0.000286931685222
-7.75953882438e-07
0.000278002954335
-8.01959732462e-07
0.000269350542218
-8.24554951086e-07
0.000260965984107
-8.43649577395e-07
0.00025284109388
-8.5917657842e-07
0.000244967951753
-8.71094215782e-07
0.000237338892459
-8.79387711797e-07
0.000229946493428
-8.84070309029e-07
0.000222783563647
-8.85183575233e-07
0.00021584313297
-8.82797106453e-07
0.00020911844204
-8.77007506319e-07
0.000202602932914
-8.67936853844e-07
0.000196290240384
-8.55730559104e-07
0.00019017418406
-8.40554868445e-07
0.000184248761175
-8.2259392867e-07
0.0001785081401
-8.02046703199e-07
0.000172946654567
-7.79123644857e-07
0.000167558798469
-7.54043428292e-07
0.000162339221256
-7.27029627958e-07
0.000157282723807
-6.98307635594e-07
0.000152384254665
-6.68101674714e-07
0.000147638906724
-6.36632183689e-07
0.00014304191398
-6.04113393623e-07
0.000138588648709
-5.70751344144e-07
0.000134274618562
-5.36742135347e-07
0.000130095463798
-5.02270630416e-07
0.000126046954772
-4.67509387798e-07
0.000122124988939
-4.32618012972e-07
0.000118325588416
-3.97742698521e-07
0.000114644897047
-3.63016124297e-07
0.000111079177599
-3.28557492111e-07
0.000107624809094
-2.94472834536e-07
0.000104278283596
-2.60855384754e-07
0.000101036203637
-2.27786359118e-07
9.78952791136e-05
-1.95334277323e-07
9.48523214716e-05
-1.63559798859e-07
9.19042548349e-05
8.90480244816e-05
-1.32497402298e-07
-6.78067710782e-08
0.00044651962735
-1.33531569237e-07
0.0004326478537
-1.97276933103e-07
0.000419206686931
-2.59100096575e-07
0.000406182452147
-3.19023907596e-07
0.000393562062074
-3.7703814556e-07
0.000381332817727
-4.33100168091e-07
0.00036948241853
-4.87137245884e-07
0.00035799895146
-5.39049828544e-07
0.000346870893486
-5.88715158215e-07
0.000336087101846
-6.35991563146e-07
0.00032563680789
-6.80722939282e-07
0.000315509607212
-7.22743515892e-07
0.000305695449968
-7.61882722e-07
0.00029618462982
-7.97970106756e-07
0.000286967772617
-8.30840191754e-07
0.000278035824432
-8.60337191371e-07
0.000269380039228
-8.86319474788e-07
0.000260991966401
-9.08663696168e-07
0.000252863438113
-9.27268480081e-07
0.000244986556547
-9.42057583619e-07
0.000237353681574
-9.52982453887e-07
0.000229957418309
-9.60024112005e-07
0.000222790605317
-9.631943329e-07
0.000215846303201
-9.62536074129e-07
0.000209117783794
-9.58123188032e-07
0.000202598520038
-9.50059398174e-07
0.000196282176607
-9.38476643337e-07
0.000190162601315
-9.23532793827e-07
0.000184233817338
-9.05408904559e-07
0.00017849001622
-8.84306020667e-07
0.000172925551696
-8.60441743041e-07
0.0001675349342
-8.34046562766e-07
0.000162312826089
-8.05360191966e-07
0.000157254037445
-7.74627875146e-07
0.000152353522362
-7.42096907058e-07
0.000147606375764
-7.08013302956e-07
0.00014300783039
-6.72618830792e-07
0.000138553254245
-6.36148306779e-07
0.000134238148052
-5.98827340908e-07
0.00013005814284
-5.60870390712e-07
0.000126008997836
-5.22479288332e-07
0.000122086597845
-4.83842063543e-07
0.000118286951205
-4.45132211655e-07
0.000114606187203
-4.06508204744e-07
0.000111040553605
-3.68113389319e-07
0.000107586414286
-3.3007605154e-07
0.000104240246271
-2.92509729965e-07
0.000100998637324
-2.5551399445e-07
9.78582833898e-05
-2.19173357181e-07
9.48159808429e-05
-1.83563355819e-07
9.18686448446e-05
8.90131892094e-05
-1.48728074785e-07
-7.06288663903e-08
0.000446590256225
-1.39130252381e-07
0.000432716355098
-2.05642578173e-07
0.000419273199265
-2.70253649636e-07
0.000406247063233
-3.33011423722e-07
0.000393624819857
-3.93925822781e-07
0.000381393732144
-4.52969675705e-07
0.000369541462393
-5.1008121405e-07
0.000358056063016
-5.65167378556e-07
0.000346925979664
-6.18107368273e-07
0.00033614004185
-6.687568969e-07
0.000325687457435
-7.16952589681e-07
0.000315557802915
-7.62516713522e-07
0.000305741014109
-8.05262100498e-07
0.000296227375215
-8.44997149286e-07
0.00028700750768
-8.81530950663e-07
0.00027807235824
-9.14678314692e-07
0.000269413186605
-9.44264753548e-07
0.000261021552848
-9.70131183769e-07
0.000252889304556
-9.92138374531e-07
0.000245008563746
-1.01017091317e-06
0.000237371714126
-1.02414070492e-06
0.000229971388109
-1.03398979805e-06
0.000222800454424
-1.03969256721e-06
0.000215852005979
-1.04125708499e-06
0.000209119348325
-1.03872575061e-06
0.000202595988713
-1.03217506182e-06
0.000196275625931
-1.02171464499e-06
0.000190152140907
-1.00748549378e-06
0.000184219588199
-9.89657574862e-07
0.000178472188311
-9.68426810764e-07
0.000172904320945
-9.44011626106e-07
0.000167510519025
-9.16649111249e-07
0.000162285463586
-8.86590993325e-07
0.000157223979337
-8.5409949049e-07
0.00015232103087
-8.19443217152e-07
0.000147571719501
-7.82893216157e-07
0.0001429712804
-7.44719242602e-07
0.000138515080283
-7.05186360424e-07
0.000134198615181
-6.64551920803e-07
0.000130017508412
-6.23062963921e-07
0.00012596750889
-5.80954053888e-07
0.000122044488947
-5.38445573895e-07
0.000118244442736
-4.95742437055e-07
0.000114563484079
-4.53033231347e-07
0.00011099784441
-4.10489719679e-07
0.000107543870787
-3.6826671447e-07
0.000104198023276
-3.26502101832e-07
0.000100956872723
-2.85317719709e-07
9.78170990169e-05
-2.44817583088e-07
9.47754807174e-05
-2.05095590466e-07
9.18289228596e-05
8.8974301406e-05
-1.66207777355e-07
-7.29575898249e-08
0.000446663213824
-1.4376022374e-07
0.000432787157739
-2.12584173949e-07
0.000419342023227
-2.795499201e-07
0.000406314028987
-3.447328029e-07
0.000393690002755
-4.08165497203e-07
0.000381457164847
-4.69839189829e-07
0.000369603136103
-5.29706323099e-07
0.000358115930161
-5.87683796189e-07
0.000346983957153
-6.43656465258e-07
0.000336196014535
-6.97481206623e-07
0.000325741282188
-7.48991109136e-07
0.000315609312835
-7.98000068264e-07
0.000305790023078
-8.44307518356e-07
0.000296273682683
-8.87703454912e-07
0.000287050903624
-9.27973535521e-07
0.000278112628336
-9.64904364411e-07
0.00026945011744
-9.98288725936e-07
0.000261054937223
-1.02793083457e-06
0.000252918946671
-1.05365134769e-06
0.000245034284273
-1.07529217652e-06
0.000237393354962
-1.0927208296e-06
0.000229988816776
-1.10583431907e-06
0.00022281356792
-1.11456236424e-06
0.000215860734038
-1.1188699503e-06
0.000209123655918
-1.11875899816e-06
0.000202595877775
-1.11426925803e-06
0.000196271136198
-1.10547822515e-06
0.000190143349889
-1.09250026209e-06
0.000184206610243
-1.07548477988e-06
0.000178455172843
-1.05461373566e-06
0.000172883449907
-1.03009834961e-06
0.000167486003653
-1.00217535763e-06
0.000162257540601
-9.71102736141e-07
0.00015719290673
-9.37155246617e-07
0.000152287083387
-9.00619744752e-07
0.000147535184013
-8.61790602044e-07
0.000142932451264
-8.2096516669e-07
0.000138474254862
-7.78439585803e-07
0.000134156089607
-7.34504877812e-07
0.000129973573719
-6.894435367e-07
0.000125922447556
-6.4352650836e-07
0.000121998571933
-5.97010779063e-07
0.000118197927014
-5.50137369616e-07
0.000114516610684
-5.03129936027e-07
0.000110950836984
-4.56193740079e-07
0.000107496934605
-4.09515184943e-07
0.000104151344727
-3.63261445909e-07
0.000100910618997
-3.17581372864e-07
9.77714189503e-05
-2.72602848517e-07
9.47305022042e-05
-2.28442408483e-07
9.17847624254e-05
8.89310300443e-05
-1.85171037689e-07
-7.48189638475e-08
0.000446738032796
-1.47471550865e-07
0.000432859810337
-2.18172932541e-07
0.000419412724615
-2.87077542543e-07
0.00040638293361
-3.542897702e-07
0.00039375721499
-4.19867089087e-07
0.000381522742181
-4.8382159309e-07
0.000369667090615
-5.46122886987e-07
0.00035817823147
-6.06701243907e-07
0.000347044535521
-6.6545093077e-07
0.000336254764234
-7.22234019666e-07
0.000325798065292
-7.76884286995e-07
0.000315663963113
-8.29211462879e-07
0.000305842350271
-8.7900571921e-07
0.000296323476949
-9.26042401008e-07
0.000287097940321
-9.70087051246e-07
0.000278156672993
-1.01090060513e-06
0.000269490931007
-1.04824481706e-06
0.000261092281441
-1.08188773528e-06
0.000252952589602
-1.1116092497e-06
0.000245064005794
-1.13720649111e-06
0.000237418952216
-1.15849907111e-06
0.000230010109363
-1.17533391197e-06
0.000222830402774
-1.18758964722e-06
0.000215872989781
-1.19518033168e-06
0.000209131246615
-1.19805846604e-06
0.000202598755916
-1.19621709411e-06
0.000196269294839
-1.18969103297e-06
0.000190136823834
-1.17855704271e-06
0.000184195476266
-1.16293307416e-06
0.000178439548881
-1.14297646634e-06
0.000172863493313
-1.11888131745e-06
0.000167461908511
-1.09087496531e-06
0.000162229534262
-1.05921387318e-06
0.000157161245644
-1.02417890303e-06
0.00015225204843
-9.86070314153e-07
0.000147497075431
-9.45202485711e-07
0.000142891583448
-9.01898705696e-07
0.000138430951088
-8.56486009648e-07
0.000134110676924
-8.09290382517e-07
0.000129926378098
-7.60632267088e-07
0.000125873789453
-7.10822642063e-07
0.000121948762314
-6.60159560952e-07
0.000118147263946
-6.08925359956e-07
0.000114465376489
-5.57384372534e-07
0.000110899296009
-5.05781306781e-07
0.000107445331546
-4.54340141778e-07
0.000104099903574
-4.03263313886e-07
0.000100859542175
-3.52732450559e-07
9.77208880977e-05
-3.02904695045e-07
9.46806744553e-05
-2.53924514056e-07
9.17357822542e-05
8.88829871683e-05
-2.05881631627e-07
-7.62394757576e-08
0.000446814272278
-1.50315276361e-07
0.000432933886144
-2.22481603685e-07
0.000419484890954
-2.92927377485e-07
0.00040645337939
-3.61787001253e-07
0.000393826074627
-4.29144274055e-07
0.000381590099461
-4.95034243015e-07
0.000369732980599
-5.59446326331e-07
0.000358242643562
-6.22327336194e-07
0.000347107416544
-6.83584651457e-07
0.000336316021561
-7.43089686676e-07
0.000325857570337
-8.00681391849e-07
0.000315721554833
-8.56170094254e-07
0.000305897838983
-9.09341509922e-07
0.000296376648379
-9.5996111173e-07
0.000287148559932
-1.00777876432e-06
0.000278204490659
-1.05253372763e-06
0.000269535685978
-1.09395992626e-06
0.000261133707651
-1.13179153254e-06
0.000252990421215
-1.16576871172e-06
0.000245097982986
-1.19564352543e-06
0.000237448827037
-1.22118578869e-06
0.000230035651639
-1.24218883581e-06
0.000222851405829
-1.25847494349e-06
0.000215889275901
-1.26990035074e-06
0.00020914267203
-1.27635960328e-06
0.000202605215181
-1.27778917853e-06
0.000196270724422
-1.27417013679e-06
0.000190133204805
-1.26552980828e-06
0.000184186835945
-1.25194231637e-06
0.000178425961402
-1.23352803181e-06
0.000172845079035
-1.21045183688e-06
0.000167438832329
-1.18292039361e-06
0.000162202002825
-1.15117837672e-06
0.00015712950364
-1.11550395396e-06
0.000152216374014
-1.07620353745e-06
0.000147457775026
-1.03360614469e-06
0.000142848986062
-9.8805742034e-07
0.000138385402375
-9.39913668906e-07
0.000134062533178
-8.89535937842e-07
0.000129876000378
-8.3728446943e-07
0.000125821537991
-7.8351351824e-07
0.000121894991375
-7.28566790866e-07
0.000118092317225
-6.72773447895e-07
0.000114409583157
-6.16444850843e-07
0.000110842967418
-5.59871925054e-07
0.000107388758631
-5.03323354558e-07
0.00010404335501
-4.47043929877e-07
0.000100803262761
-3.91255147095e-07
9.76650993215e-05
-3.36149998923e-07
9.46255693169e-05
-2.81907519398e-07
9.1681539781e-05
8.88297205816e-05
-2.28640923229e-07
-7.72462953169e-08
0.000446891518581
-1.52343861003e-07
0.000433008983719
-2.25585240372e-07
0.000419558132339
-2.97193604998e-07
0.000406524987766
-3.67333715873e-07
0.000393896214744
-4.36116603776e-07
0.000381658882362
-5.03601843689e-07
0.000369800465846
-5.69800848362e-07
0.00035830884258
-6.34679833537e-07
0.000347172295538
-6.98162765109e-07
0.000336379504502
-7.60134473365e-07
0.000325919542057
-8.20443704702e-07
0.000315781864072
-8.78906419041e-07
0.000305956301711
-9.3530926817e-07
0.000296433051238
-9.89413368107e-07
0.000287202664045
-1.04095843653e-06
0.000278256035735
-1.08966729825e-06
0.000269584394851