/*--------------------------------*- C++ -*----------------------------------*\
  =========                 |
  \\      /  F ield         | OpenFOAM: The Open Source CFD Toolbox
   \\    /   O peration     | Website:  https://openfoam.org
    \\  /    A nd           | Version:  7
     \\/     M anipulation  |
\*---------------------------------------------------------------------------*/
FoamFile
{
    version     2.0;
    format      ascii;
    class       volVectorField;
    location    "420";
    object      U;
}
// * * * * * * * * * * * * * * * * * * * * * * * * * * * * * * * * * * * * * //

dimensions      [0 1 -1 0 0 0 0];

internalField   nonuniform List<vector> 
35666
(
(0.830002112094 -5.03236090772e-06 0)
(0.830019560145 -1.49219035537e-05 0)
(0.83005518963 -2.45022155553e-05 0)
(0.830107653344 -3.38159999519e-05 0)
(0.830174131803 -4.28869587814e-05 0)
(0.830252863899 -5.1726163049e-05 0)
(0.830342775911 -6.03365887234e-05 0)
(0.830442780475 -6.87140188266e-05 0)
(0.830551691873 -7.68480549299e-05 0)
(0.830668370522 -8.4723783827e-05 0)
(0.83079177074 -9.23234808616e-05 0)
(0.830920910774 -9.9627968209e-05 0)
(0.831054850788 -0.000106617856155 0)
(0.831192694047 -0.000113274564185 0)
(0.831333592886 -0.000119581245796 0)
(0.831476750749 -0.000125523435979 0)
(0.831621422439 -0.000131089589887 0)
(0.831766914932 -0.00013627136472 0)
(0.831912588601 -0.000141063825388 0)
(0.832057857975 -0.000145465429866 0)
(0.832202191859 -0.00014947797391 0)
(0.832345112829 -0.000153106365488 0)
(0.832486196252 -0.000156358397913 0)
(0.832625068755 -0.000159244407168 0)
(0.832761406301 -0.000161776952499 0)
(0.832894931794 -0.000163970434491 0)
(0.833025412456 -0.000165840750311 0)
(0.833152656873 -0.000167404934996 0)
(0.833276511985 -0.000168680832289 0)
(0.833396859894 -0.000169686794568 0)
(0.833513614743 -0.000170441394609 0)
(0.833626719527 -0.000170963210215 0)
(0.833736143082 -0.000171270574872 0)
(0.833841877114 -0.000171381472288 0)
(0.833943933424 -0.000171313223732 0)
(0.834042341275 -0.000171082921662 0)
(0.834137145009 -0.000170705208207 0)
(0.834228401172 -0.000170201220496 0)
(0.834316180878 -0.000169559208286 0)
(0.834400545659 -0.000168909139929 0)
(0.830002086938 -1.48788113903e-05 0)
(0.830019446261 -4.4143899848e-05 0)
(0.830054914314 -7.25131458779e-05 0)
(0.830107163323 -0.000100106265154 0)
(0.830173403922 -0.000126993790664 0)
(0.830251896557 -0.000153208947134 0)
(0.830341585786 -0.000178759848145 0)
(0.830441402821 -0.000203633556178 0)
(0.830550179519 -0.000227799083079 0)
(0.83066679149 -0.000251211864715 0)
(0.830790205681 -0.000273818566755 0)
(0.830919450437 -0.000295561318123 0)
(0.831053593414 -0.000316381363971 0)
(0.831191742692 -0.00033622223392 0)
(0.831333052822 -0.000355032384106 0)
(0.831476727034 -0.000372767303229 0)
(0.831622017716 -0.000389391022614 0)
(0.831768227488 -0.000404877155339 0)
(0.831914710719 -0.000419209389939 0)
(0.8320608746 -0.000432381653099 0)
(0.83220617958 -0.000444397804291 0)
(0.832350139164 -0.000455271173684 0)
(0.832492319213 -0.000465023719678 0)
(0.832632336684 -0.000473685209082 0)
(0.832769857916 -0.00048129208397 0)
(0.832904596455 -0.000487886516748 0)
(0.833036310549 -0.000493515191977 0)
(0.833164800362 -0.000498228409916 0)
(0.833289905009 -0.000502078922857 0)
(0.833411499485 -0.00050512119619 0)
(0.833529491499 -0.000507410384006 0)
(0.833643818386 -0.000509001805264 0)
(0.833754443992 -0.000509950070965 0)
(0.833861355845 -0.00051030885381 0)
(0.833964561979 -0.00051012989755 0)
(0.834064089232 -0.000509464183459 0)
(0.834159977943 -0.000508356051692 0)
(0.834252287933 -0.000506866262463 0)
(0.834341072981 -0.000504971043658 0)
(0.834426446798 -0.00050300751528 0)
(0.830002073873 -2.43223701084e-05 0)
(0.830019313444 -7.2194622299e-05 0)
(0.830054531951 -0.000118632098888 0)
(0.830106431197 -0.000163826887946 0)
(0.830172271807 -0.000207898507592 0)
(0.830250356396 -0.00025090495371 0)
(0.830339665237 -0.000292860883368 0)
(0.830439164169 -0.000333745875365 0)
(0.830547718254 -0.000373509427941 0)
(0.830664232684 -0.000412077736054 0)
(0.830787699232 -0.000449361446611 0)
(0.830917166136 -0.000485262843509 0)
(0.831051715926 -0.000519682004171 0)
(0.831190466522 -0.000552522121154 0)
(0.831332577347 -0.000583693969727 0)
(0.831477251835 -0.000613119522392 0)
(0.831623738284 -0.000640734618147 0)
(0.831771331466 -0.000666490794307 0)
(0.831919374647 -0.000690356286857 0)
(0.832067261309 -0.000712316359533 0)
(0.832214436121 -0.000732372989372 0)
(0.83236039539 -0.000750544085734 0)
(0.832504686839 -0.000766862286092 0)
(0.832646908934 -0.000781373494747 0)
(0.83278670953 -0.000794135207962 0)
(0.832923784161 -0.000805214754315 0)
(0.833057873762 -0.000814687499193 0)
(0.833188762227 -0.000822635081666 0)
(0.833316273531 -0.000829143747334 0)
(0.83344026887 -0.000834302771278 0)
(0.833560643491 -0.000838203068312 0)
(0.833677323739 -0.000840935904236 0)
(0.83379026378 -0.000842591821967 0)
(0.833899443002 -0.000843259771482 0)
(0.83400486216 -0.00084302592282 0)
(0.834106543371 -0.00084197499918 0)
(0.834204519296 -0.000840181260553 0)
(0.834298856038 -0.000837745226565 0)
(0.834389574151 -0.000834630760929 0)
(0.834476887468 -0.000831385748757 0)
(0.830002049617 -3.33749591859e-05 0)
(0.830019093193 -9.90804609269e-05 0)
(0.8300539252 -0.000162847542795 0)
(0.830105287598 -0.000224952895999 0)
(0.830170509749 -0.0002855723492 0)
(0.830247955319 -0.000344794179555 0)
(0.830336656975 -0.000402644076942 0)
(0.83043563105 -0.000459097149385 0)
(0.830543791431 -0.000514084934094 0)
(0.830660087344 -0.00056750461442 0)
(0.830783547928 -0.000619229873549 0)
(0.830913251683 -0.000669121009937 0)
(0.831048304259 -0.000717033715945 0)
(0.83118783943 -0.000762826621278 0)
(0.831331025291 -0.000806367797714 0)
(0.831477067059 -0.000847540005123 0)
(0.831625208494 -0.000886244762028 0)
(0.831774734148 -0.00092240511214 0)
(0.831924972206 -0.000955967371291 0)
(0.832075296984 -0.000986901747382 0)
(0.832225130831 -0.001015202218 0)
(0.832373945359 -0.00104088551433 0)
(0.83252126212 -0.0010639896963 0)
(0.83266665259 -0.00108457208313 0)
(0.832809737592 -0.00110270711188 0)
(0.832950186066 -0.00111848375698 0)
(0.833087713383 -0.00113200317083 0)
(0.833222079167 -0.00114337602245 0)
(0.833353084856 -0.00115272029176 0)
(0.833480570906 -0.00116015881852 0)
(0.833604413896 -0.00116581747194 0)
(0.833724523487 -0.00116982307556 0)
(0.833840839276 -0.00117230202861 0)
(0.833953328178 -0.00117337880398 0)
(0.834061979972 -0.00117317442914 0)
(0.834166809271 -0.00117180805357 0)
(0.834267837505 -0.0011693845277 0)
(0.834365138939 -0.00116604542675 0)
(0.83445868716 -0.0011617414647 0)
(0.834548835723 -0.00115724022543 0)
(0.830002016777 -4.20037016743e-05 0)
(0.830018791728 -0.000124710199642 0)
(0.83005309011 -0.000205021211149 0)
(0.830103706118 -0.000283312913532 0)
(0.830168059561 -0.000359826022055 0)
(0.830244594175 -0.000434684923979 0)
(0.830332411282 -0.000507931111489 0)
(0.830430593604 -0.000579538657552 0)
(0.830538119624 -0.000649422936932 0)
(0.830653997371 -0.000717452392826 0)
(0.830777306487 -0.000783462462225 0)
(0.830907167082 -0.000847268702523 0)
(0.831042717363 -0.000908678178526 0)
(0.831183114389 -0.000967499459352 0)
(0.831327540223 -0.00102355124772 0)
(0.831475205038 -0.00107666959587 0)
(0.831625349134 -0.0011267134933 0)
(0.831777245988 -0.00117356897609 0)
(0.831930206028 -0.00121715170807 0)
(0.83208358018 -0.0012574083236 0)
(0.832236762859 -0.00129431649475 0)
(0.832389194318 -0.00132788410696 0)
(0.832540362396 -0.00135814748462 0)
(0.832689803517 -0.00138516912337 0)
(0.832837103021 -0.00140903480739 0)
(0.832981894737 -0.0014298506164 0)
(0.833123859998 -0.00144773958912 0)
(0.833262725999 -0.00146283858685 0)
(0.833398263802 -0.00147529500565 0)
(0.833530285839 -0.00148526392393 0)
(0.833658643262 -0.0014929051824 0)
(0.833783222986 -0.001498381062 0)
(0.833903944535 -0.0015018538425 0)
(0.834020757621 -0.00150348432003 0)
(0.834133636764 -0.00150342908714 0)
(0.834242585987 -0.00150184315247 0)
(0.834347611334 -0.00149886292527 0)
(0.834448796558 -0.00149467342301 0)
(0.834546055245 -0.00148921070638 0)
(0.834639916628 -0.00148347669052 0)
(0.83000197397 -5.01871377031e-05 0)
(0.830018397113 -0.000149028084295 0)
(0.83005199426 -0.000245071034691 0)
(0.830101625007 -0.000338804923469 0)
(0.830164822017 -0.000430544715322 0)
(0.830240127275 -0.000520458090828 0)
(0.830326726039 -0.000608608436949 0)
(0.830423782922 -0.000694973491418 0)
(0.830530356886 -0.000779455405744 0)
(0.830645530005 -0.000861894910266 0)
(0.83076844641 -0.000942088371079 0)
(0.830898280372 -0.00101980388248 0)
(0.831034213613 -0.00109479539413 0)
(0.831175435639 -0.00116681521954 0)
(0.831321149652 -0.00123562508392 0)
(0.831470575872 -0.00130100546925 0)
(0.831622954114 -0.00136276312606 0)
(0.831777547694 -0.00142073671388 0)
(0.831933648222 -0.0014748006811 0)
(0.832090580375 -0.00152486747717 0)
(0.832247706154 -0.00157088827361 0)
(0.832404428626 -0.00161285236852 0)
(0.832560194953 -0.00165078549171 0)
(0.832714498733 -0.00168474723848 0)
(0.832866881441 -0.00171482782751 0)
(0.833016933129 -0.00174114443912 0)
(0.833164292277 -0.00176383725215 0)
(0.833308645009 -0.00178306544737 0)
(0.833449723585 -0.00179900317817 0)
(0.833587304499 -0.00181183581132 0)
(0.833721205977 -0.00182175628196 0)
(0.833851285447 -0.00182896194155 0)
(0.833977436132 -0.00183365146985 0)
(0.834099585204 -0.00183602274142 0)
(0.834217686951 -0.0018362693933 0)
(0.834331731172 -0.00183458382481 0)
(0.834441703967 -0.00183113593342 0)
(0.834547699056 -0.00182615683761 0)
(0.834649557765 -0.00181956666374 0)
(0.83474801622 -0.00181262056341 0)
(0.830001920055 -5.79038318858e-05 0)
(0.830017899563 -0.000171970460712 0)
(0.830050610416 -0.000282893129808 0)
(0.8300989899 -0.000391288307784 0)
(0.830160705447 -0.00049755672038 0)
(0.830234414715 -0.000601918405324 0)
(0.830319401499 -0.000704466230609 0)
(0.830414927572 -0.000805187622361 0)
(0.830520148478 -0.000903975613373 0)
(0.830634236167 -0.00100064526511 0)
(0.830756414228 -0.00109495378735 0)
(0.830885925012 -0.00118661960498 0)
(0.83102200644 -0.00127533921 0)
(0.831163891606 -0.00136080232027 0)
(0.831310814205 -0.00144270549732 0)
(0.831462011836 -0.00152076392336 0)
(0.831616729057 -0.00159472111571 0)
(0.831774222054 -0.00166435649803 0)
(0.831933764516 -0.00172949091127 0)
(0.832094653677 -0.00178999011231 0)
(0.832256216058 -0.00184576646086 0)
(0.832417812733 -0.00189677891038 0)
(0.832578843984 -0.001943031624 0)
(0.832738753149 -0.00198457135322 0)
(0.832897029578 -0.00202148397048 0)
(0.833053210628 -0.00205389024745 0)
(0.833206882733 -0.00208194130584 0)
(0.833357681598 -0.00210581373583 0)
(0.833505291557 -0.00212570481775 0)
(0.833649444265 -0.00214182771695 0)
(0.833789916707 -0.0021544070917 0)
(0.833926528951 -0.00216367487666 0)
(0.834059140857 -0.00216986657073 0)
(0.834187650603 -0.00217321814211 0)
(0.834311986589 -0.00217396196426 0)
(0.834432119609 -0.00217232986968 0)
(0.834548010935 -0.00216852753241 0)
(0.834659763363 -0.00216283572816 0)
(0.834767134722 -0.00215515688946 0)
(0.834871093457 -0.0021470234572 0)
(0.830001854034 -6.51314898959e-05 0)
(0.830017289654 -0.000193471352369 0)
(0.830048911245 -0.000318380635431 0)
(0.830095745346 -0.000440619127651 0)
(0.830155615859 -0.000560685575308 0)
(0.830227312947 -0.000678862241038 0)
(0.83031023279 -0.000795280019756 0)
(0.830403749119 -0.000909943219185 0)
(0.830507130119 -0.00102274116247 0)
(0.830619653846 -0.00113346660612 0)
(0.830740639166 -0.00124183876893 0)
(0.830869411751 -0.00134752525003 0)
(0.831005280156 -0.00145016154071 0)
(0.831147534337 -0.00154936886397 0)
(0.831295450198 -0.00164477049851 0)
(0.831448292605 -0.00173600623233 0)
(0.831605318641 -0.00182274458418 0)
(0.831765782914 -0.00190469270687 0)
(0.831928944398 -0.0019816039223 0)
(0.832094073776 -0.00205328298144 0)
(0.832260460724 -0.0021195890974 0)
(0.832427420906 -0.00218043698453 0)
(0.832594302438 -0.00223579606159 0)
(0.83276049156 -0.00228568816131 0)
(0.832925417368 -0.00233018395041 0)
(0.833088555463 -0.00236939844015 0)
(0.833249430532 -0.0024034857811 0)
(0.83340761783 -0.00243263370467 0)
(0.83356274366 -0.00245705775321 0)
(0.833714484935 -0.00247699559992 0)
(0.833862567858 -0.00249270152586 0)
(0.834006766172 -0.00250444131148 0)
(0.834146898049 -0.00251248740129 0)
(0.834282825135 -0.00251711508769 0)
(0.834414443127 -0.00251859721093 0)
(0.834541698133 -0.00251720767521 0)
(0.834664520746 -0.0025131904086 0)
(0.834783020918 -0.00250688047085 0)
(0.834896862103 -0.00249816023932 0)
(0.835007266503 -0.00248886876842 0)
(0.830001775008 -7.18478468827e-05 0)
(0.830016558955 -0.000213464656453 0)
(0.830046872419 -0.000351424963377 0)
(0.830091842046 -0.000486647521463 0)
(0.830149469344 -0.000619741586283 0)
(0.830218692684 -0.000751062249831 0)
(0.830299033254 -0.000880788182955 0)
(0.830389990649 -0.00100894924728 0)
(0.830490961349 -0.00113543816237 0)
(0.830601345835 -0.00126003052902 0)
(0.830720574687 -0.0013824105248 0)
(0.830848073311 -0.00150219542347 0)
(0.830983237032 -0.00161895760733 0)
(0.831125428091 -0.00173224500272 0)
(0.831273978859 -0.00184160018928 0)
(0.83142819412 -0.00194657768383 0)
(0.831587354185 -0.00204675898689 0)
(0.831750720526 -0.00214176516208 0)
(0.831917543385 -0.00223126688792 0)
(0.8320870703 -0.00231499192046 0)
(0.832258554932 -0.0023927300339 0)
(0.83243126588 -0.00246433553226 0)
(0.832604495132 -0.00252972756416 0)
(0.832777565838 -0.0025888884733 0)
(0.832949839105 -0.00264186051488 0)
(0.83312071967 -0.00268874123912 0)
(0.83328966032 -0.0027296778943 0)
(0.833456165064 -0.00276486115708 0)
(0.833619791034 -0.00279451849608 0)
(0.83378014925 -0.00281890743669 0)
(0.833936904217 -0.00283830893198 0)
(0.834089772926 -0.00285302108832 0)
(0.834238522042 -0.0028633531735 0)
(0.834382967709 -0.00286962076289 0)
(0.834522964674 -0.00287213913035 0)
(0.834658427345 -0.00287122701848 0)
(0.83478924868 -0.00286716964706 0)
(0.834915542371 -0.00286036155899 0)
(0.835036866991 -0.00285066252725 0)
(0.835154714413 -0.0028402527415 0)
(0.830001682284 -7.80314201864e-05 0)
(0.830015700838 -0.000231886197517 0)
(0.830044474534 -0.00038191939353 0)
(0.83008724001 -0.000529223771246 0)
(0.83014219641 -0.000674531575434 0)
(0.830208444468 -0.000818281928635 0)
(0.830285641421 -0.000960712051295 0)
(0.830373425407 -0.00110188745704 0)
(0.830471336054 -0.00124171309141 0)
(0.830578912302 -0.0013799545477 0)
(0.830695713149 -0.00151626602623 0)
(0.830821281038 -0.00165021711504 0)
(0.8309551157 -0.00178131696882 0)
(0.831096669172 -0.00190903716299 0)
(0.831245347111 -0.00203283350391 0)
(0.831400509826 -0.00215216624739 0)
(0.831561474752 -0.00226651816333 0)
(0.83172752197 -0.00237541016368 0)
(0.83189790222 -0.00247841429155 0)
(0.832071846352 -0.00257516394576 0)
(0.832248575578 -0.00266536126625 0)
(0.832427312083 -0.00274878173388 0)
(0.832607289596 -0.00282527611958 0)
(0.832787763446 -0.00289477002007 0)
(0.832968019757 -0.00295726127184 0)
(0.833147383477 -0.00301281558937 0)
(0.833325225074 -0.00306156079905 0)
(0.833500965778 -0.00310368004194 0)
(0.833674081341 -0.00313940431524 0)
(0.833844104379 -0.00316900468091 0)
(0.834010625241 -0.00319278443578 0)
(0.834173292053 -0.00321107153213 0)
(0.834331808463 -0.00322421125396 0)
(0.83448593439 -0.00323256010955 0)
(0.834635473793 -0.00323647769312 0)
(0.834780300752 -0.00323633057008 0)
(0.834920262368 -0.00323244861984 0)
(0.835055470999 -0.00322529187228 0)
(0.835185369844 -0.00321469454419 0)
(0.835311731611 -0.00320321818094 0)
(0.830001575397 -8.3662359919e-05 0)
(0.830014710852 -0.000248676297099 0)
(0.830041704302 -0.000409763481724 0)
(0.830081911011 -0.000568204490528 0)
(0.830133746247 -0.00072486655419 0)
(0.830196485298 -0.000880284223524 0)
(0.830269930539 -0.00103476484316 0)
(0.830353869617 -0.00118842098556 0)
(0.830447998861 -0.00134118048376 0)
(0.83055201086 -0.00149280828478 0)
(0.830665609512 -0.00164293620201 0)
(0.830788472037 -0.00179109141736 0)
(0.830920221374 -0.00193672238415 0)
(0.831060418699 -0.00207922371748 0)
(0.831208562259 -0.00221796050758 0)
(0.831364086509 -0.00235229139476 0)
(0.831526363327 -0.00248158977562 0)
(0.831694706806 -0.00260526273094 0)
(0.831868381148 -0.00272276738246 0)
(0.832046610617 -0.00283362439833 0)
(0.832228590904 -0.00293742845692 0)
(0.832413501406 -0.00303385558713 0)
(0.832600517895 -0.00312266743492 0)
(0.832788825016 -0.0032037126151 0)
(0.832977628122 -0.00327692540577 0)
(0.83316616404 -0.00334232212438 0)
(0.833353710449 -0.00339999557503 0)
(0.833539593696 -0.00345010799485 0)
(0.833723194874 -0.00349288292114 0)
(0.833903954233 -0.00352859640272 0)
(0.834081373759 -0.0035575679097 0)
(0.834255018656 -0.00358015134387 0)
(0.834424515972 -0.00359672617632 0)
(0.834589556598 -0.0036076898895 0)
(0.834749881803 -0.00361344800104 0)
(0.834905314712 -0.00361441796937 0)
(0.835055646628 -0.00361097793825 0)
(0.835200981438 -0.00360366026622 0)
(0.835340636259 -0.00359227013941 0)
(0.835476670196 -0.00357979698816 0)
(0.830001454173 -8.87232906071e-05 0)
(0.830013587108 -0.000263782323907 0)
(0.830038555537 -0.000434867317688 0)
(0.830075840523 -0.000603458656331 0)
(0.830124089908 -0.000770569619171 0)
(0.830182763352 -0.000936841488101 0)
(0.830251815063 -0.00110266386457 0)
(0.83033119099 -0.00126820899317 0)
(0.830420755831 -0.00143344004025 0)
(0.830520369606 -0.00159813301938 0)
(0.830629896775 -0.00176190769695 0)
(0.830749166975 -0.00192425719188 0)
(0.830877945812 -0.00208457494669 0)
(0.831015924431 -0.00224218113785 0)
(0.831162715214 -0.00239634906848 0)
(0.831317848342 -0.00254633087502 0)
(0.831480770988 -0.00269138180732 0)
(0.831650850635 -0.00283078260724 0)
(0.831827382124 -0.00296385955417 0)
(0.832009597478 -0.00309000175726 0)
(0.832196677893 -0.00320867532802 0)
(0.832387767338 -0.00331943419606 0)
(0.832581987168 -0.00342192746964 0)
(0.832778451076 -0.0035159033846 0)
(0.832976279748 -0.00360121001697 0)
(0.833174614682 -0.00367779305058 0)
(0.833372630709 -0.00374569098722 0)
(0.833569546869 -0.00380502824925 0)
(0.833764635401 -0.00385600666148 0)
(0.833957228773 -0.00389889580579 0)
(0.834146724535 -0.00393402270363 0)
(0.834332588748 -0.00396176132298 0)
(0.834514355939 -0.00398252201523 0)
(0.834691632735 -0.00399674226567 0)
(0.834864083421 -0.00400487457279 0)
(0.835031467184 -0.00400739021761 0)
(0.835193507523 -0.00400471936779 0)
(0.83535029041 -0.00399747434182 0)
(0.835500995459 -0.0039854272533 0)
(0.835647968675 -0.0039720488673 0)
(0.830001318716 -9.32000999824e-05 0)
(0.830012330396 -0.00027716105342 0)
(0.830035029637 -0.000457155534147 0)
(0.830069028783 -0.000634873385548 0)
(0.830113222227 -0.000811483656337 0)
(0.830167261057 -0.000987745186952 0)
(0.830231255276 -0.00116414221909 0)
(0.830305315275 -0.00134092020158 0)
(0.830389483367 -0.00151809172706 0)
(0.830483798736 -0.00169545788248 0)
(0.830588300569 -0.00187263963428 0)
(0.83070298778 -0.00204910772161 0)
(0.830827788145 -0.00222420993436 0)
(0.830962544515 -0.00239719829131 0)
(0.831107006796 -0.00256725691601 0)
(0.831260825186 -0.00273352989961 0)
(0.831423546516 -0.00289514839986 0)
(0.831594615193 -0.00305125641693 0)
(0.831773378483 -0.00320103471803 0)
(0.83195909537 -0.00334372231939 0)
(0.832150948424 -0.0034786349732 0)
(0.832348058161 -0.00360518021788 0)
(0.832549499215 -0.0037228687007 0)
(0.832754317577 -0.00383132164179 0)
(0.832961548118 -0.0039302744755 0)
(0.8331702317 -0.00401957686303 0)
(0.833379431236 -0.00409918941301 0)
(0.833588246181 -0.00416917755616 0)
(0.833795825047 -0.00422970309607 0)
(0.834001375733 -0.00428101400439 0)
(0.834204173323 -0.00432343300755 0)
(0.834403566111 -0.00435734558535 0)
(0.834598977471 -0.00438318756664 0)
(0.834789911643 -0.00440143396918 0)
(0.8349759387 -0.00441258438289 0)
(0.835156737988 -0.00441716644383 0)
(0.835331950544 -0.00441566606993 0)
(0.835501632067 -0.00440878393778 0)
(0.835664812085 -0.00439625431842 0)
(0.835824118043 -0.00438209045645 0)
(0.830001169447 -9.70826064646e-05 0)
(0.830010944307 -0.000288780709492 0)
(0.83003113584 -0.000476570806372 0)
(0.830061491321 -0.000662359072249 0)
(0.830101162808 -0.000847478288406 0)
(0.830149996836 -0.0010328148367 0)
(0.830208260114 -0.00121895984175 0)
(0.830276230571 -0.00140624609084 0)
(0.830354134396 -0.00159475106029 0)
(0.830442198971 -0.0017843170877 0)
(0.830540650168 -0.0019745824629 0)
(0.830649671484 -0.00216501076425 0)
(0.830769371619 -0.00235491749329 0)
(0.830899767085 -0.00254349713364 0)
(0.831040769917 -0.00272985165012 0)
(0.831192176901 -0.00291301981489 0)
(0.831353662176 -0.00309200659009 0)
(0.831524774785 -0.00326581201686 0)
(0.831704941111 -0.00343345898501 0)
(0.831893471685 -0.00359401914947 0)
(0.83208957194 -0.0037466362344 0)
(0.832292356469 -0.00389054605293 0)
(0.832500866105 -0.00402509270717 0)
(0.832714087022 -0.00414974060333 0)
(0.832930970966 -0.00426408210842 0)
(0.833150455743 -0.00436784087894 0)
(0.833371485145 -0.00446087108164 0)
(0.833593027569 -0.00454315289876 0)
(0.833814092722 -0.00461478483687 0)
(0.834033746021 -0.00467597346047 0)
(0.834251120137 -0.00472702118405 0)
(0.834465424428 -0.00476831287364 0)
(0.834675949471 -0.00480030154138 0)
(0.834882075696 -0.00482349508346 0)
(0.835083258315 -0.00483843880932 0)
(0.835279077481 -0.00484571844325 0)
(0.835469073913 -0.00484587908457 0)
(0.835653257333 -0.00483971884704 0)
(0.835830492748 -0.00482692846391 0)
(0.836003678003 -0.00481213346675 0)
(0.830001007058 -0.000100365091559 0)
(0.830009435106 -0.000298622587738 0)
(0.830026891015 -0.000493076699555 0)
(0.830053258706 -0.000685853659731 0)
(0.830087955879 -0.000878455837417 0)
(0.830131025275 -0.00107190589348 0)
(0.830182887984 -0.00126691353511 0)
(0.830243989175 -0.00146391318731 0)
(0.830314741729 -0.00166306366619 0)
(0.830395566938 -0.00186426658215 0)
(0.830486886368 -0.00206719639112 0)
(0.830589081013 -0.00227132823071 0)
(0.83070245764 -0.00247596290532 0)
(0.830827227677 -0.00268025273464 0)
(0.83096349032 -0.00288322964144 0)
(0.831111217114 -0.00308383494889 0)
(0.831270239979 -0.00328095024257 0)
(0.831440244283 -0.00347342876712 0)
(0.831620767215 -0.0036601267275 0)
(0.831811201243 -0.00383993363081 0)
(0.832010802477 -0.00401180072666 0)
(0.832218703646 -0.00417476662386 0)
(0.832433931089 -0.00432797926747 0)
(0.832655424975 -0.00447071361418 0)
(0.832882061777 -0.00460238455033 0)
(0.833112677996 -0.0047225548304 0)
(0.833346094101 -0.0048309380624 0)
(0.833581137713 -0.00492739699708 0)
(0.83381666516 -0.00501193758231 0)
(0.834051580772 -0.00508469940697 0)
(0.834284853114 -0.00514594323737 0)
(0.834515528799 -0.00519603651926 0)
(0.834742740632 -0.00523543724293 0)
(0.834965719989 -0.00526467846202 0)
(0.835183782481 -0.00528434762468 0)
(0.835396385501 -0.00529508893167 0)
(0.835602947557 -0.00529750941145 0)
(0.83580341246 -0.00529251421498 0)
(0.835996463629 -0.00527974362638 0)
(0.836185251643 -0.00526451498143 0)
(0.830000832538 -0.000103046664402 0)
(0.830007811634 -0.000306682203688 0)
(0.830022319294 -0.000506659742901 0)
(0.83004437586 -0.000705325900637 0)
(0.830073669322 -0.000904356065835 0)
(0.830110436061 -0.00110491630558 0)
(0.830155245877 -0.0013078456104 0)
(0.83020870729 -0.0015136940351 0)
(0.830271418831 -0.00172271868551 0)
(0.830343997553 -0.00193489988097 0)
(0.830427066062 -0.00214996943522 0)
(0.830521212526 -0.00236743608577 0)
(0.830626956313 -0.00258660774018 0)
(0.830744723321 -0.00280661494724 0)
(0.830874824327 -0.00302643730815 0)
(0.831017434497 -0.00324493253265 0)
(0.831172576072 -0.0034608676275 0)
(0.831340105937 -0.00367295186617 0)
(0.831519708613 -0.00387987093087 0)
(0.831710894898 -0.00408032133731 0)
(0.831913006296 -0.00427304403547 0)
(0.832125225186 -0.0044568560421 0)
(0.832346590344 -0.00463067898171 0)
(0.832576017117 -0.00479356353253 0)
(0.832812321293 -0.00494470895897 0)
(0.833054245568 -0.0050834771665 0)
(0.833300487383 -0.0052094010024 0)
(0.833549726929 -0.00532218682833 0)
(0.833800654129 -0.00542171166939 0)
(0.834051993682 -0.0055080155032 0)
(0.834302527019 -0.00558128940323 0)
(0.83455111165 -0.0056418605174 0)
(0.834796694111 -0.0056901743789 0)
(0.835038327214 -0.00572677723228 0)
(0.835275157509 -0.00575229187644 0)
(0.835506491091 -0.00576741925314 0)
(0.835731597493 -0.0057728298081 0)
(0.83595032972 -0.00576954557314 0)
(0.836161168869 -0.00575714784445 0)
(0.836367494129 -0.00574173627489 0)
(0.830000647096 -0.000105131458559 0)
(0.83000608498 -0.000312969933758 0)
(0.830017451308 -0.000517330689946 0)
(0.83003490071 -0.000720777508792 0)
(0.830058392741 -0.000925159575873 0)
(0.830088351553 -0.00113179152829 0)
(0.830125486689 -0.00134165090395 0)
(0.830170562423 -0.00155541653231 0)
(0.830224357795 -0.00177346068716 0)
(0.830287683163 -0.00199586265179 0)
(0.830361363216 -0.00222243462262 0)
(0.830446198899 -0.00245274386882 0)
(0.83054293311 -0.00268613120012 0)
(0.830652222918 -0.00292173080844 0)
(0.830774613298 -0.00315849363783 0)
(0.830910511401 -0.00339521421771 0)
(0.831060163375 -0.0036305607514 0)
(0.831223635478 -0.0038631083097 0)
(0.831400800434 -0.00409137472282 0)
(0.831591329675 -0.00431385829297 0)
(0.831794692064 -0.00452907618459 0)
(0.8320101594 -0.00473560214499 0)
(0.832236818656 -0.00493210216087 0)
(0.832473590469 -0.00511736666855 0)
(0.832719253058 -0.00529033808023 0)
(0.832972470469 -0.00545013261909 0)
(0.833231823793 -0.00559605576853 0)
(0.83349584393 -0.00572761099737 0)
(0.833763044396 -0.00584450178875 0)
(0.834031952891 -0.00594662735787 0)
(0.834301140082 -0.0060340727053 0)
(0.834569245781 -0.00610709403138 0)
(0.834834998127 -0.00616610008925 0)
(0.83509723714 -0.00621163257126 0)
(0.835354905357 -0.00624433830824 0)
(0.835607123057 -0.00626497004883 0)
(0.835852977987 -0.00627426106903 0)
(0.83609220121 -0.00627335991509 0)
(0.836323045825 -0.00626177814139 0)
(0.836549087638 -0.00624650062147 0)
(0.830000452171 -0.000106628658129 0)
(0.830004268216 -0.000317511156065 0)
(0.830012323338 -0.000525124951102 0)
(0.830024902554 -0.000732244183071 0)
(0.830042234935 -0.000940889792567 0)
(0.830064923401 -0.00115252789721 0)
(0.830093805123 -0.00136828197377 0)
(0.830129788889 -0.00158897138738 0)
(0.830173824894 -0.00181509973762 0)
(0.830226909729 -0.00204686566156 0)
(0.830290066405 -0.00228418589017 0)
(0.830364309409 -0.00252671343413 0)
(0.830450611504 -0.00277385130889 0)
(0.830549873579 -0.00302476755262 0)
(0.830662894272 -0.00327841409456 0)
(0.830790339193 -0.00353354975546 0)
(0.830932711638 -0.00378876748912 0)
(0.83109032659 -0.00404252611104 0)
(0.831263289288 -0.00429318634625 0)
(0.831451479521 -0.00453905054825 0)
(0.831654542726 -0.00477840495941 0)
(0.83187188869 -0.00500956312013 0)
(0.832102698265 -0.00523090878424 0)
(0.832345937993 -0.00544093662243 0)
(0.832600382139 -0.00563828900741 0)
(0.832864641131 -0.00582178735564 0)
(0.833137195081 -0.00599045678535 0)
(0.833416430781 -0.00614354324015 0)
(0.833700680364 -0.00628052266395 0)
(0.833988259997 -0.00640110228063 0)
(0.83427750653 -0.00650521441852 0)
(0.834566811941 -0.00659300385433 0)
(0.834854650401 -0.00666480925879 0)
(0.835139609899 -0.00672114226453 0)
(0.835420387822 -0.0067626560968 0)
(0.835695877164 -0.00679014569127 0)
(0.835964943799 -0.00680440331269 0)
(0.836227158274 -0.00680671273671 0)
(0.836480513496 -0.00679650197056 0)
(0.836728741811 -0.00678175802772 0)
(0.830000249348 -0.000107552364154 0)
(0.830002375948 -0.00032034591185 0)
(0.83000697619 -0.000530102235887 0)
(0.830014459974 -0.000739795523088 0)
(0.830025320688 -0.000951613541261 0)
(0.830040328156 -0.00116717430958 0)
(0.830060432206 -0.00138775238443 0)
(0.830086671451 -0.001614317505 0)
(0.830120153723 -0.00184751937355 0)
(0.830162050049 -0.00208769572274 0)
(0.830213572824 -0.00233489227194 0)
(0.830275945396 -0.00258887642493 0)
(0.830350371215 -0.00284914548736 0)
(0.8304380024 -0.0031149357706 0)
(0.830539906145 -0.00338523556168 0)
(0.830657029485 -0.00365880257031 0)
(0.830790164122 -0.00393418641241 0)
(0.830939913013 -0.0042097567945 0)
(0.831106660311 -0.00448373770073 0)
(0.83129054632 -0.00475424722008 0)
(0.831491449056 -0.00501934215867 0)
(0.831708973821 -0.00527706607163 0)
(0.831942451757 -0.00552549901257 0)
(0.832190947913 -0.00576280697755 0)
(0.832453278759 -0.00598728891721 0)
(0.832728038515 -0.00619741920851 0)
(0.833013633145 -0.00639188370138 0)
(0.833308320355 -0.0065696078109 0)
(0.833610253612 -0.00672977560757 0)
(0.83391752814 -0.00687183942092 0)
(0.834228226312 -0.00699551999424 0)
(0.834540461779 -0.00710079794912 0)
(0.834852416265 -0.00718789701889 0)
(0.83516238137 -0.00725726296206 0)
(0.835468761317 -0.00730952909448 0)
(0.835770172182 -0.00734551620666 0)
(0.836065209018 -0.00736606680582 0)
(0.836353234004 -0.00737260661576 0)
(0.836631939146 -0.00736446204303 0)
(0.836905163076 -0.00735075493179 0)
(0.830000040348 -0.000107921318836 0)
(0.830000423957 -0.000321528139117 0)
(0.830001454079 -0.000532345471376 0)
(0.830003658639 -0.00074353391869 0)
(0.830007787266 -0.000957440279254 0)
(0.830014762336 -0.00117583225563 0)
(0.830025628902 -0.00140013805174 0)
(0.830041537601 -0.00163148521334 0)
(0.830063736459 -0.0018706822762 0)
(0.830093554472 -0.00211822435279 0)
(0.830132379161 -0.00237430996473 0)
(0.830181632163 -0.00263885001172 0)
(0.83024274217 -0.00291146996677 0)
(0.830317113599 -0.00319151221605 0)
(0.830406091067 -0.00347804186553 0)
(0.830510920789 -0.00376985698639 0)
(0.830632710229 -0.00406550429594 0)
(0.830772387496 -0.00436330150755 0)
(0.830930662293 -0.00466136715979 0)
(0.831107990487 -0.00495765811898 0)
(0.831304544417 -0.00525001426623 0)
(0.831520190969 -0.00553620934056 0)
(0.831754479111 -0.00581400628268 0)
(0.832006638179 -0.00608121497775 0)
(0.83227558755 -0.00633574989476 0)
(0.8325599577 -0.00657568498328 0)
(0.832858121892 -0.00679930320977 0)
(0.833168237051 -0.00700513839355 0)
(0.833488291788 -0.007192007444 0)
(0.833816159244 -0.00735903172737 0)