/*--------------------------------*- C++ -*----------------------------------*\
  =========                 |
  \\      /  F ield         | OpenFOAM: The Open Source CFD Toolbox
   \\    /   O peration     | Website:  https://openfoam.org
    \\  /    A nd           | Version:  7
     \\/     M anipulation  |
\*---------------------------------------------------------------------------*/
FoamFile
{
    version     2.0;
    format      ascii;
    class       volVectorField;
    location    "732";
    object      U;
}
// * * * * * * * * * * * * * * * * * * * * * * * * * * * * * * * * * * * * * //

dimensions      [0 1 -1 0 0 0 0];

internalField   nonuniform List<vector> 
38464
(
(0.830002108546 -4.64297309705e-06 0)
(0.830002084679 -1.37383949456e-05 0)
(0.830002073957 -2.24902433203e-05 0)
(0.830002053297 -3.09159580073e-05 0)
(0.830002025572 -3.89864242457e-05 0)
(0.8300019897 -4.66846873084e-05 0)
(0.830001944774 -5.39942447643e-05 0)
(0.830001889994 -6.08977773332e-05 0)
(0.8300018246 -6.73777478888e-05 0)
(0.83000174795 -7.34168606718e-05 0)
(0.830001659552 -7.89985911446e-05 0)
(0.830001559099 -8.41077593766e-05 0)
(0.830001446483 -8.87310877899e-05 0)
(0.830001321811 -9.28577142943e-05 0)
(0.830001185405 -9.64796333523e-05 0)
(0.8300010378 -9.95920500895e-05 0)
(0.830000879727 -0.000102193633601 0)
(0.830000712101 -0.000104286666633 0)
(0.830000535992 -0.000105877089312 0)
(0.830000352604 -0.000106974443545 0)
(0.830000163238 -0.000107591724552 0)
(0.829999969269 -0.000107745152179 0)
(0.829999772107 -0.000107453874247 0)
(0.829999573173 -0.000106739617068 0)
(0.829999373868 -0.000105626298454 0)
(0.829999175547 -0.000104139617132 0)
(0.829998979495 -0.000102306634001 0)
(0.829998786914 -0.00010015535567 0)
(0.829998598902 -9.77143344129e-05 0)
(0.829998416445 -9.50122899856e-05 0)
(0.82999824041 -9.20777643381e-05 0)
(0.829998071542 -8.89388100951e-05 0)
(0.829997910459 -8.56227212218e-05 0)
(0.829997757663 -8.21558020945e-05 0)
(0.829997613537 -7.85631811871e-05 0)
(0.829997478361 -7.48686622103e-05 0)
(0.829997352315 -7.10946173393e-05 0)
(0.829997235492 -6.72619143437e-05 0)
(0.829997127916 -6.33898798743e-05 0)
(0.829997029555 -5.94962917828e-05 0)
(0.829996940337 -5.55974008949e-05 0)
(0.829996860179 -5.17079770386e-05 0)
(0.829996789002 -4.78413774957e-05 0)
(0.829996726771 -4.40096352385e-05 0)
(0.829996673521 -4.02235639629e-05 0)
(0.829996629401 -3.64928858282e-05 0)
(0.82999659473 -3.28263899945e-05 0)
(0.829996570052 -2.92319491557e-05 0)
(0.829996556078 -2.57158707237e-05 0)
(0.829996553399 -2.22846835091e-05 0)
(0.829996564413 -1.89723991461e-05 0)
(0.829996601476 -1.58617013773e-05 0)
(0.830019535024 -1.37647519555e-05 0)
(0.830019431569 -4.07568763178e-05 0)
(0.830019319841 -6.67549490808e-05 0)
(0.83001913299 -9.17783956184e-05 0)
(0.830018879209 -0.000115747209803 0)
(0.830018549097 -0.000138619456434 0)
(0.830018135064 -0.000160346150247 0)
(0.830017629563 -0.000180876108017 0)
(0.830017025458 -0.000200157439917 0)
(0.830016316666 -0.000218138656469 0)
(0.83001549848 -0.00023477030081 0)
(0.830014567872 -0.000250006668432 0)
(0.830013523661 -0.000263807483043 0)
(0.830012366644 -0.000276139445094 0)
(0.830011099605 -0.000286977573054 0)
(0.830009727302 -0.000296306289545 0)
(0.830008256332 -0.000304120212448 0)
(0.830006694995 -0.000310424639603 0)
(0.830005053061 -0.000315235719781 0)
(0.830003341543 -0.000318580327386 0)
(0.830001572408 -0.000320495658876 0)
(0.829999758303 -0.000321028586596 0)
(0.829997912257 -0.000320234805875 0)
(0.829996047408 -0.000318177819613 0)
(0.829994176731 -0.00031492780482 0)
(0.829992312805 -0.00031056040272 0)
(0.829990467596 -0.000305155478404 0)
(0.829988652286 -0.000298795881877 0)
(0.829986877124 -0.000291566252522 0)
(0.829985151328 -0.000283551883468 0)
(0.829983483009 -0.000274837681328 0)
(0.829981879138 -0.00026550722183 0)
(0.829980345536 -0.000255641930138 0)
(0.829978886893 -0.000245320371 0)
(0.829977506813 -0.000234617670972 0)
(0.829976207871 -0.000223605048066 0)
(0.829974991693 -0.000212349464037 0)
(0.829973859039 -0.000200913370818 0)
(0.829972809904 -0.000189354557336 0)
(0.829971843614 -0.000177726072683 0)
(0.829970958933 -0.000166076220228 0)
(0.829970154164 -0.00015444860668 0)
(0.829969427259 -0.000142882233223 0)
(0.829968775911 -0.000131411619358 0)
(0.829968197656 -0.000120066938063 0)
(0.829967689957 -0.000108874142671 0)
(0.829967250294 -9.78551852531e-05 0)
(0.829966876304 -8.70286221956e-05 0)
(0.829966565549 -7.64085471476e-05 0)
(0.82996631417 -6.59943853398e-05 0)
(0.829966121032 -5.57970994285e-05 0)
(0.829966010265 -4.5966957779e-05 0)
(0.830055125525 -2.26004503347e-05 0)
(0.830054878341 -6.69467485034e-05 0)
(0.830054554103 -0.000109690221016 0)
(0.830054040141 -0.000150837979633 0)
(0.830053338017 -0.000190269745328 0)
(0.830052422249 -0.000227925909239 0)
(0.830051271929 -0.000263726458328 0)
(0.830049865139 -0.00029758903831 0)
(0.830048181333 -0.000329428976553 0)
(0.830046202826 -0.000359161252121 0)
(0.83004391579 -0.000386703344079 0)
(0.830041311039 -0.000411978090237 0)
(0.830038384592 -0.000434916510955 0)
(0.830035138 -0.00045546043804 0)
(0.830031578451 -0.000473564822452 0)
(0.830027718684 -0.000489199632644 0)
(0.830023576712 -0.000502351284613 0)
(0.830019175379 -0.000513023570408 0)
(0.83001454179 -0.000521238078384 0)
(0.830009706622 -0.000527034117822 0)
(0.830004703375 -0.000530468183232 0)
(0.829999567559 -0.000531613001683 0)
(0.829994335894 -0.000530556229493 0)
(0.829989045503 -0.000527398856712 0)
(0.829983733164 -0.000522253402459 0)
(0.82997843462 -0.000515241957519 0)
(0.829973183972 -0.00050649416217 0)
(0.829968013164 -0.000496145161109 0)
(0.829962951566 -0.000484333618369 0)
(0.829958025659 -0.000471199810222 0)
(0.829953258822 -0.000456883870036 0)
(0.829948671207 -0.000441524175054 0)
(0.829944279706 -0.000425255940962 0)
(0.829940097985 -0.000408209985031 0)
(0.829936136593 -0.00039051171719 0)
(0.82993240311 -0.000372280300451 0)
(0.829928902351 -0.000353628027442 0)
(0.829925636585 -0.000334659853087 0)
(0.829922605785 -0.000315473107914 0)
(0.829919807876 -0.000296157351365 0)
(0.829917239 -0.000276794357548 0)
(0.82991489376 -0.000257458223591 0)
(0.829912765467 -0.000238215567624 0)
(0.829910846368 -0.000219125831749 0)
(0.829909127859 -0.000200241654886 0)
(0.829907600679 -0.000181609280006 0)
(0.829906255072 -0.000163268871623 0)
(0.829905081047 -0.000145255699141 0)
(0.829904068636 -0.000127603690073 0)
(0.829903206337 -0.000110334827175 0)
(0.829902480614 -9.34399658283e-05 0)
(0.829901894506 -7.68813179516e-05 0)
(0.830107530369 -3.11903578391e-05 0)
(0.830107093653 -9.2419521613e-05 0)
(0.830106471392 -0.000151472419611 0)
(0.830105503579 -0.000208346485226 0)
(0.830104175131 -0.000262893979329 0)
(0.830102438012 -0.000315042848827 0)
(0.830100250592 -0.000364684945167 0)
(0.830097568399 -0.000411710552182 0)
(0.830094349971 -0.000456003912947 0)
(0.830090559246 -0.000497446966596 0)
(0.830086167505 -0.000535923365318 0)
(0.83008115499 -0.000571322476701 0)
(0.830075511999 -0.000603543420881 0)
(0.830069239596 -0.000632498869831 0)
(0.830062349866 -0.000658118430724 0)
(0.830054865813 -0.000680351501876 0)
(0.83004682087 -0.000699169504047 0)
(0.830038258114 -0.000714567439264 0)
(0.830029229179 -0.000726564752935 0)
(0.830019792982 -0.000735205509114 0)
(0.830010014256 -0.000740557913832 0)
(0.829999962016 -0.000742713240379 0)
(0.829989707965 -0.000741784235575 0)
(0.829979324937 -0.00073790308671 0)
(0.829968885395 -0.000731219053118 0)
(0.829958460061 -0.000721895847492 0)
(0.829948116684 -0.000710108878632 0)
(0.829937918994 -0.00069604242811 0)
(0.829927925831 -0.000679886865288 0)
(0.829918190494 -0.000661835947645 0)
(0.829908760257 -0.000642084295826 0)
(0.829899676099 -0.00062082505792 0)
(0.829890972582 -0.00059824783479 0)
(0.829882677901 -0.000574536848895 0)
(0.829874814045 -0.000549869410079 0)
(0.829867397094 -0.000524414639017 0)
(0.82986043757 -0.000498332479301 0)
(0.829853940887 -0.000471772954155 0)
(0.829847907813 -0.000444875670777 0)
(0.829842334992 -0.000417769540547 0)
(0.829837215445 -0.000390572688286 0)
(0.82983253911 -0.000363392535964 0)
(0.829828293331 -0.000336326012721 0)
(0.829824463373 -0.000309459885954 0)
(0.829821032884 -0.000282871185267 0)
(0.829817984366 -0.000256627726834 0)
(0.829815299558 -0.000230788298457 0)
(0.829812959791 -0.000205402468575 0)
(0.829810946807 -0.000180516326769 0)
(0.829809243077 -0.000156177158993 0)
(0.829807826569 -0.000132391565136 0)
(0.829806661304 -0.000108650136244 0)
(0.830173932274 -3.95561940204e-05 0)
(0.830173286716 -0.000117239824979 0)
(0.830172324103 -0.000192210777147 0)
(0.830170834412 -0.000264463749516 0)
(0.830168778774 -0.000333837064094 0)
(0.830166080793 -0.000400252043297 0)
(0.830162670285 -0.000463577401013 0)
(0.830158471983 -0.000523680620165 0)
(0.830153415751 -0.000580416856516 0)
(0.830147439704 -0.000633635717763 0)
(0.830140493539 -0.000683186120991 0)
(0.830132541186 -0.000728921482452 0)
(0.830123562672 -0.00077070505212 0)
(0.830113555354 -0.000808414963369 0)
(0.830102534479 -0.000841948831329 0)
(0.830090533135 -0.00087122772875 0)
(0.830077601613 -0.000896199424718 0)
(0.830063806245 -0.000916840798623 0)
(0.830049227782 -0.000933159393253 0)
(0.830033959402 -0.000945194093873 0)
(0.830018104429 -0.000953014965919 0)
(0.83000177387 -0.000956722298966 0)
(0.829985083853 -0.000956444945309 0)
(0.829968153082 -0.000952338040741 0)
(0.829951100362 -0.000944580232522 0)
(0.829934042311 -0.000933370518514 0)
(0.829917091272 -0.00091892483717 0)
(0.829900353517 -0.000901472505445 0)
(0.829883927736 -0.000881252639401 0)
(0.829867903858 -0.000858510630693 0)
(0.829852362173 -0.000833494793722 0)
(0.829837372786 -0.000806453223516 0)
(0.829822995329 -0.000777630950045 0)
(0.829809278972 -0.000747267398093 0)
(0.82979626262 -0.000715594203043 0)
(0.829783975342 -0.000682833369656 0)
(0.829772436919 -0.000649195789281 0)
(0.829761658548 -0.00061488009168 0)
(0.829751643595 -0.000580071815974 0)
(0.829742388434 -0.000544942875236 0)
(0.829733883291 -0.000509651279276 0)
(0.829726113108 -0.00047434108958 0)
(0.829719058371 -0.000439142567561 0)
(0.829712695929 -0.000404172478349 0)
(0.829706999744 -0.000369534525486 0)
(0.829701941617 -0.000335320030374 0)
(0.829697491824 -0.000301608617635 0)
(0.829693619461 -0.000268466903443 0)
(0.829690293153 -0.00023595180015 0)
(0.829687483467 -0.00020413523958 0)
(0.829685156846 -0.000173110127242 0)
(0.829683217297 -0.000141585929524 0)
(0.830252573505 -4.77081939248e-05 0)
(0.830251717823 -0.000141438108913 0)
(0.830250408443 -0.000231958000037 0)
(0.830248381091 -0.000319269355522 0)
(0.830245566045 -0.00040320997586 0)
(0.830241851938 -0.000483701466775 0)
(0.830237131596 -0.000560596130539 0)
(0.830231290378 -0.000633743845329 0)
(0.830224220998 -0.000702973353951 0)
(0.83021582727 -0.000768103250093 0)
(0.83020602931 -0.000828947126553 0)
(0.830194767386 -0.000885320093549 0)
(0.830182004771 -0.000937045433217 0)
(0.830167729723 -0.000983960975897 0)
(0.830151956512 -0.00102592502582 0)
(0.830134725601 -0.00106282162942 0)
(0.830116102947 -0.00109456502411 0)
(0.830096178568 -0.00112110315845 0)
(0.830075064395 -0.00114242020951 0)
(0.830052891562 -0.00115853806354 0)
(0.830029807227 -0.00116951676931 0)
(0.830005971086 -0.00117545400011 0)
(0.829981551677 -0.00117648360448 0)
(0.829956722664 -0.00117277333645 0)
(0.829931659165 -0.00116452189619 0)
(0.829906534315 -0.00115195540378 0)
(0.829881516068 -0.00113532346248 0)
(0.829856764419 -0.0011148949397 0)
(0.829832428995 -0.00109095362303 0)
(0.829808647151 -0.00106379386161 0)
(0.82978554248 -0.00103371633055 0)
(0.829763223833 -0.0010010239957 0)
(0.829741784728 -0.000966018382283 0)
(0.829721303206 -0.000928996188762 0)
(0.829701841996 -0.000890246307061 0)
(0.829683449032 -0.00085004725941 0)
(0.829666158176 -0.000808665071644 0)
(0.829649990184 -0.000766351572248 0)
(0.82963495377 -0.000723343101023 0)
(0.829621046807 -0.000679859605894 0)
(0.829608257551 -0.000636104089388 0)
(0.829596565901 -0.00059226237656 0)
(0.829585944621 -0.000548503161231 0)
(0.829576360541 -0.000504978293558 0)
(0.829567775667 -0.000461823219102 0)
(0.829560148252 -0.00041915768792 0)
(0.829553433816 -0.000377087112628 0)
(0.829547585798 -0.000335701389898 0)
(0.829542555935 -0.000295072034227 0)
(0.829538297923 -0.000255287313555 0)
(0.829534766196 -0.000216615559719 0)
(0.82953178764 -0.000176630996273 0)
(0.83034238168 -5.56492582797e-05 0)
(0.830341330115 -0.000165021922052 0)
(0.830339698039 -0.000270727066445 0)
(0.830337162045 -0.000372785508223 0)
(0.830333614211 -0.000471047912534 0)
(0.830328900719 -0.000565444124155 0)
(0.830322868452 -0.000655817988154 0)
(0.83031535435 -0.000742007680174 0)
(0.830306204652 -0.000823819187152 0)
(0.830295279355 -0.00090104230178 0)
(0.830282459674 -0.000973455425346 0)
(0.830267653233 -0.00104083361171 0)
(0.830250798163 -0.00110295648684 0)
(0.830231866051 -0.00115961597935 0)
(0.830210863676 -0.00121062366507 0)
(0.830187833611 -0.00125581745685 0)
(0.830162853691 -0.00129506745833 0)
(0.830136035436 -0.00132828082934 0)
(0.830107521507 -0.00135540555437 0)
(0.830077482344 -0.00137643304467 0)
(0.830046112108 -0.0013913995479 0)
(0.830013624109 -0.00140038637843 0)
(0.829980245904 -0.00140351902197 0)
(0.829946214234 -0.00140096519862 0)
(0.829911769982 -0.00139293200533 0)
(0.829877153324 -0.00137966227138 0)
(0.829842599197 -0.00136143029093 0)
(0.829808333221 -0.00133853708706 0)
(0.829774568152 -0.00131130538676 0)
(0.829741500939 -0.00128007445357 0)
(0.829709310396 -0.00124519494482 0)
(0.829678155531 -0.00120702391046 0)
(0.82964817446 -0.00116592006682 0)
(0.829619483929 -0.00112223942236 0)
(0.829592179326 -0.00107633134203 0)
(0.829566335178 -0.00102853508642 0)
(0.829542006007 -0.000979176863992 0)
(0.829519227519 -0.000928567399571 0)
(0.829498018003 -0.000877000014218 0)
(0.82947837993 -0.000824749195089 0)
(0.82946030162 -0.000772069622609 0)
(0.829443758989 -0.000719195613961 0)
(0.829428717274 -0.000666340941069 0)
(0.829415132734 -0.000613698982883 0)
(0.829402954269 -0.00056144309807 0)
(0.829392124938 -0.000509727130782 0)
(0.829382583474 -0.000458687083144 0)
(0.829374265515 -0.000408441454811 0)
(0.829367103743 -0.000359081798745 0)
(0.82936103095 -0.000310695243459 0)
(0.829355990378 -0.000263832552024 0)
(0.829351714359 -0.000214542465526 0)
(0.830442269677 -6.33755552583e-05 0)
(0.830441052525 -0.000187979272323 0)
(0.830439151493 -0.000308498712732 0)
(0.830436179025 -0.000424988182973 0)
(0.830431981739 -0.000537324718652 0)
(0.830426355552 -0.000645455404878 0)
(0.830419092326 -0.000749224599868 0)
(0.830409971267 -0.000848465504206 0)
(0.830398782253 -0.000942966178167 0)
(0.830385331181 -0.00103249093498 0)
(0.830369449968 -0.00111678419783 0)
(0.830351003185 -0.00119558025678 0)
(0.830329893664 -0.00126861229235 0)
(0.830306066652 -0.0013356214502 0)
(0.830279512524 -0.00139636562438 0)
(0.830250268078 -0.0014506276526 0)
(0.83021841642 -0.00149822271856 0)
(0.830184085499 -0.0015390047739 0)
(0.830147445375 -0.0015728718285 0)
(0.830108704369 -0.00159976999472 0)
(0.830068104224 -0.00161969621898 0)
(0.830025914526 -0.00163269966638 0)
(0.829982426538 -0.00163888178208 0)
(0.829937946733 -0.00163839507706 0)
(0.829892790211 -0.00163144074619 0)
(0.829847274247 -0.00161826523565 0)
(0.829801712143 -0.00159915593099 0)
(0.829756407585 -0.00157443612634 0)
(0.829711649613 -0.00154445948015 0)
(0.829667708338 -0.0015096041294 0)
(0.829624831435 -0.00147026666767 0)
(0.829583241482 -0.00142685614105 0)
(0.829543134103 -0.00137978823769 0)
(0.829504676909 -0.00132947978756 0)
(0.829468009157 -0.00127634369709 0)
(0.829433242072 -0.00122078438969 0)
(0.829400459719 -0.00116319381802 0)
(0.829369720361 -0.00110394807574 0)
(0.829341058168 -0.001043404619 0)
(0.829314485217 -0.000981900089743 0)
(0.829289993668 -0.000919748710631 0)
(0.829267558059 -0.000857241215878 0)
(0.829247137621 -0.000794644261303 0)
(0.829228678585 -0.000732200291025 0)
(0.829212116405 -0.000670127769955 0)
(0.829197377838 -0.000608621432654 0)
(0.829184382966 -0.000547853736896 0)
(0.829173047187 -0.000487977641747 0)
(0.829163281457 -0.000429114315119 0)
(0.829154992322 -0.000371326360515 0)
(0.829148111883 -0.000315573839563 0)
(0.829142257676 -0.00025595191382 0)
(0.830551052368 -7.08774434563e-05 0)
(0.830549715005 -0.000210281424407 0)
(0.830547627144 -0.000345226063169 0)
(0.830544332036 -0.000475813622907 0)
(0.830539623686 -0.000601961062346 0)
(0.830533239977 -0.000723642613235 0)
(0.830524908894 -0.000840712961471 0)
(0.830514342645 -0.000953007970617 0)
(0.830501264691 -0.00106030386707 0)
(0.830485416143 -0.0011623440999 0)
(0.830466568471 -0.00125884172218 0)
(0.830444531659 -0.00134949099831 0)
(0.830419161544 -0.00143397726056 0)
(0.830390365432 -0.00151198726575 0)
(0.83035810604 -0.00158321935324 0)
(0.830322403823 -0.00164739314765 0)
(0.830283337576 -0.00170425858533 0)
(0.830241043427 -0.00175360404165 0)
(0.830195712205 -0.00179526336651 0)
(0.830147585389 -0.00182912166927 0)
(0.830096949713 -0.00185511972771 0)
(0.830044130729 -0.00187325693955 0)
(0.829989485481 -0.00188359277848 0)
(0.829933394637 -0.00188624676447 0)
(0.829876254284 -0.00188139700622 0)
(0.829818467731 -0.00186927741394 0)
(0.829760437511 -0.00185017372692 0)
(0.82970255789 -0.00182441852274 0)
(0.829645208015 -0.00179238541301 0)
(0.829588745923 -0.00175448262881 0)
(0.829533503476 -0.00171114622364 0)
(0.829479782331 -0.00166283309699 0)
(0.829427850936 -0.00161001405126 0)
(0.829377942572 -0.00155316705436 0)
(0.829330254351 -0.00149277087424 0)
(0.829284947127 -0.0014292992076 0)
(0.829242146187 -0.00136321540627 0)
(0.829201942636 -0.00129496786693 0)
(0.829164395323 -0.00122498612354 0)
(0.829129533215 -0.00115367765516 0)
(0.829097358069 -0.00108142539731 0)
(0.829067847314 -0.00100858592796 0)
(0.829040957031 -0.000935488271878 0)
(0.829016624943 -0.00086243328874 0)
(0.828994773363 -0.000789693644658 0)
(0.828975311968 -0.000717513817601 0)
(0.828958140419 -0.000646110785331 0)
(0.828943151203 -0.000575679037532 0)
(0.828930230726 -0.000506383665854 0)
(0.82891925329 -0.000438233597832 0)
(0.828910140283 -0.000372745370145 0)
(0.828902371264 -0.000301584499421 0)
(0.830667591134 -7.81411436584e-05 0)
(0.83066619187 -0.00023188717971 0)
(0.83066402451 -0.000380840929449 0)
(0.830660558108 -0.00052516686133 0)
(0.830655527056 -0.000664835296992 0)
(0.830648603753 -0.000799858094347 0)
(0.830639443943 -0.000930110737569 0)
(0.830627683957 -0.00105544028358 0)
(0.830612970981 -0.00117561849711 0)
(0.830594970639 -0.00129037400096 0)
(0.830573382452 -0.00139939272802 0)
(0.830547949516 -0.00150233143445 0)
(0.830518467816 -0.00159882803209 0)
(0.830484793444 -0.00168851309523 0)
(0.830446848111 -0.00177102122918 0)
(0.830404622777 -0.00184600218714 0)
(0.83035817939 -0.00191313149831 0)
(0.830307650679 -0.00197212035613 0)
(0.830253238071 -0.00202272454697 0)
(0.830195207774 -0.00206475220744 0)
(0.830133885223 -0.00209807023551 0)
(0.830069648038 -0.00212260920146 0)
(0.830002917794 -0.00213836666394 0)
(0.829934150858 -0.00214540882326 0)
(0.829863828633 -0.00214387052079 0)
(0.829792447522 -0.00213395361807 0)
(0.82972050896 -0.0021159238723 0)
(0.829648509788 -0.00209010643778 0)
(0.829576933285 -0.00205688019997 0)
(0.829506241056 -0.00201667114086 0)
(0.829436865992 -0.00196994499575 0)
(0.829369206403 -0.00191719942998 0)
(0.829303621428 -0.00185895600282 0)
(0.829240427719 -0.00179575213615 0)
(0.829179897383 -0.00172813331907 0)
(0.829122257116 -0.00165664572228 0)
(0.829067688415 -0.0015818293878 0)
(0.829016328743 -0.00150421210549 0)
(0.828968273501 -0.00142430406552 0)
(0.828923578657 -0.0013425933314 0)
(0.828882263869 -0.00125954215264 0)
(0.828844315962 -0.00117558410689 0)
(0.828809692617 -0.00109112202596 0)
(0.828778326148 -0.00100652664525 0)
(0.828750127287 -0.000922136066712 0)
(0.828724988833 -0.000838255512342 0)
(0.828702789011 -0.000755156834569 0)
(0.828683395184 -0.000673084121952 0)
(0.828666666829 -0.000592265316102 0)
(0.828652439813 -0.000512620211012 0)
(0.828640626217 -0.000436391998645 0)
(0.828630540296 -0.000352281383911 0)
(0.830790841197 -8.51502836958e-05 0)
(0.830789449086 -0.000252747323533 0)
(0.830787330699 -0.000415260987362 0)
(0.830783876083 -0.000572931728321 0)
(0.830778753429 -0.000725796310306 0)
(0.830771562812 -0.000873914956274 0)
(0.830761880147 -0.00101719484462 0)
(0.830749257712 -0.00115550355435 0)
(0.830733257166 -0.00128861698365 0)
(0.830713458354 -0.00141625641934 0)
(0.830689477424 -0.00153808672305 0)
(0.830660978032 -0.00165373168052 0)
(0.830627682707 -0.00176278439712 0)
(0.830589381876 -0.0018648197526 0)
(0.830545941129 -0.00195940670552 0)
(0.830497306537 -0.00204612062405 0)
(0.830443507848 -0.00212455537367 0)
(0.830384659582 -0.00219433490604 0)
(0.830320959895 -0.00225512411097 0)
(0.830252687362 -0.00230663868496 0)
(0.830180195656 -0.00234865378234 0)
(0.830103906414 -0.00238101123638 0)
(0.830024300417 -0.00240362517031 0)
(0.829941907478 -0.00241648585951 0)
(0.829857295279 -0.00241966176013 0)
(0.829771057624 -0.00241329967305 0)
(0.829683802398 -0.0023976230793 0)
(0.829596139707 -0.00237292873642 0)
(0.829508670456 -0.00233958169159 0)
(0.829421975792 -0.0022980089077 0)
(0.829336607587 -0.00224869174997 0)
(0.829253080267 -0.00219215759842 0)
(0.829171864042 -0.00212897087697 0)
(0.829093379726 -0.00205972378427 0)
(0.829017995058 -0.00198502700602 0)
(0.828946022586 -0.00190550066517 0)
(0.828877718938 -0.00182176573291 0)
(0.828813285426 -0.0017344360931 0)
(0.828752869748 -0.00164411140009 0)
(0.828696568683 -0.00155137084165 0)
(0.828644431511 -0.00145676785822 0)
(0.828596464052 -0.00136082585659 0)
(0.828552633057 -0.00126403489107 0)
(0.828512870858 -0.00116684923728 0)
(0.828477080083 -0.00106968598619 0)
(0.828445138363 -0.000972924439458 0)
(0.828416902605 -0.000876904356957 0)
(0.828392213501 -0.000781928803 0)
(0.828370901711 -0.000688312818557 0)
(0.828352758059 -0.000595844978852 0)
(0.828337687803 -0.000507692861782 0)
(0.828324806947 -0.000408985966884 0)
(0.830919821554 -9.1887176543e-05 0)
(0.830918514272 -0.000272808505592 0)
(0.830916590241 -0.000448396379282 0)
(0.830913356105 -0.000618980194548 0)
(0.830908407951 -0.000784675609124 0)
(0.83090126759 -0.000945601899534 0)
(0.830891424574 -0.00110170904021 0)
(0.830878340015 -0.00125289509047 0)
(0.830861481786 -0.00139894974617 0)
(0.830840334514 -0.0015395958744 0)
(0.830814420159 -0.00167448512679 0)
(0.830783310628 -0.00180321501467 0)
(0.830746641261 -0.00192533888493 0)
(0.830704121685 -0.00204037906513 0)
(0.830655545067 -0.00214783971506 0)
(0.83060079535 -0.00224722007209 0)
(0.830539852318 -0.00233802771805 0)
(0.830472794386 -0.00241979167036 0)
(0.830399798993 -0.00249207504632 0)
(0.830321140573 -0.00255448703956 0)
(0.830237186125 -0.00260669393125 0)
(0.830148388502 -0.00264842886474 0)
(0.8300552776 -0.00267950012628 0)
(0.829958449719 -0.00269979770272 0)
(0.829858555428 -0.00270929793384 0)
(0.829756286317 -0.00270806612654 0)
(0.829652361063 -0.00269625707181 0)
(0.829547511253 -0.00267411346523 0)
(0.829442467401 -0.00264196231846 0)
(0.829337945576 -0.00260020950356 0)
(0.829234635033 -0.00254933265406 0)
(0.829133187134 -0.00248987267965 0)
(0.829034205861 -0.00242242421178 0)
(0.828938240042 -0.00234762530062 0)
(0.82884577745 -0.00226614671157 0)
(0.828757240733 -0.00217868114334 0)
(0.828672985192 -0.00208593268282 0)
(0.828593298239 -0.00198860676494 0)
(0.828518400426 -0.00188740087306 0)
(0.8284484478 -0.00178299615791 0)
(0.828383535416 -0.00167605010769 0)
(0.828323701717 -0.00156719034854 0)
(0.828268933617 -0.00145700962231 0)
(0.828219171989 -0.00134606184994 0)
(0.828174317428 -0.00123485938872 0)
(0.828134236116 -0.00112387177859 0)
(0.828098765301 -0.00101352306554 0)
(0.828067718376 -0.000904186552641 0)
(0.828040896026 -0.000796294987487 0)
(0.828018036929 -0.000689456348655 0)
(0.827999043504 -0.00058799316159 0)
(0.827982793748 -0.00047277261542 0)
(0.831053593109 -9.83339156933e-05 0)
(0.831052454721 -0.000292016599979 0)
(0.831050883047 -0.000480155398717 0)
(0.831048097533 -0.000663180426917 0)
(0.831043617143 -0.000841297793872 0)
(0.831036880609 -0.00101469618161 0)
(0.831027285902 -0.00118337940772 0)
(0.831014197215 -0.00134728637314 0)
(0.830996981758 -0.00150623111199 0)
(0.830975020796 -0.0016599482365 0)
(0.830947732384 -0.0018080858089 0)
(0.83091458522 -0.0019502239146 0)
(0.830875114171 -0.0020858837493 0)
(0.830828932923 -0.00221454112383 0)
(0.830775745337 -0.00233563940637 0)
(0.830715354783 -0.00244860325876 0)
(0.830647671387 -0.00255285268717 0)
(0.830572716938 -0.00264781727542 0)
(0.830490627316 -0.0027329503913 0)
(0.830401652273 -0.00280774309219 0)
(0.830306152537 -0.00287173744983 0)
(0.830204594252 -0.00292453896763 0)
(0.830097540858 -0.00296582777805 0)
(0.829985642624 -0.00299536829259 0)
(0.829869624106 -0.00301301702559 0)
(0.829750269922 -0.00301872833293 0)
(0.829628409245 -0.00301255789092 0)
(0.82950489953 -0.00299466378825 0)
(0.829380609946 -0.00296530521426 0)
(0.829256405056 -0.00292483878582 0)
(0.829133129202 -0.00287371267219 0)
(0.829011592067 -0.00281245872734 0)
(0.828892555776 -0.00274168293918 0)
(0.828776723853 -0.00266205453026 0)
(0.828664732247 -0.00257429410723 0)
(0.828557142546 -0.00247916124772 0)
(0.828454437423 -0.00237744193172 0)
(0.828357018241 -0.00226993618206 0)
(0.828265204713 -0.0021574462599 0)
(0.828179236402 -0.00204076569287 0)
(0.828099275835 -0.00192066937295 0)
(0.828025412962 -0.0017979048782 0)
(0.82795767068 -0.00167318516065 0)
(0.827896011128 -0.00154718255342 0)
(0.827840342479 -0.00142052409146 0)
(0.8277905261 -0.00129378904203 0)
(0.827746383507 -0.00116750614526 0)
(0.827707701714 -0.00104213263201 0)
(0.827674251508 -0.000918257126345 0)
(0.827645712053 -0.000795249333337 0)
(0.827621989021 -0.000678856134785 0)
(0.827601674655 -0.000544891638415 0)
(0.831191259922 -0.000104473368336 0)
(0.831190378593 -0.000310319631348 0)
(0.831189325565 -0.000510449372523 0)
(0.83118723003 -0.00070540372903 0)
(0.831183529834 -0.000895489678567 0)
(0.831177577099 -0.00108097503286 0)
(0.831168674502 -0.001261928175 0)
(0.831156085185 -0.00143833934659 0)
(0.831139070509 -0.00161005804316 0)
(0.831116901924 -0.0017768418334 0)
(0.831088885447 -0.00193834635192 0)
(0.831054376508 -0.00209414514576 0)
(0.831012797313 -0.00224373739943 0)
(0.830963651167 -0.002386561443 0)
(0.830906535894 -0.00252200725123 0)
(0.830841155384 -0.00264943018965 0)
(0.830767329192 -0.00276816530887 0)
(0.830684999948 -0.00287754223108 0)
(0.830594238243 -0.00297690043692 0)
(0.830495244847 -0.00306560473938 0)
(0.830388350037 -0.00314306065613 0)
(0.830274009977 -0.00320872936379 0)
(0.830152800139 -0.00326214185729 0)
(0.830025405853 -0.00330291193423 0)
(0.829892610208 -0.00333074761056 0)
(0.829755279578 -0.00334546059742 0)
(0.829614347194 -0.00334697351469 0)
(0.829470795227 -0.00333532457053 0)
(0.829325635923 -0.00331066953371 0)
(0.829179892378 -0.00327328090478 0)
(0.829034579524 -0.00322354431725 0)
(0.828890685925 -0.00316195228797 0)
(0.828749156897 -0.0030890955586 0)
(0.828610879416 -0.00300565234188 0)
(0.8284766692 -0.00291237587921 0)
(0.828347260224 -0.00281008074964 0)
(0.828223296838 -0.00269962841644 0)
(0.828105328538 -0.00258191248193 0)
(0.827993807337 -0.00245784411934 0)
(0.827889087576 -0.00232833808928 0)
(0.827791427969 -0.00219429971236 0)
(0.827700995575 -0.00205661306663 0)
(0.827617871394 -0.00191613067406 0)
(0.827542057224 -0.00177366475582 0)
(0.827473483398 -0.00162997988602 0)
(0.827412017254 -0.0014857883577 0)
(0.827357471884 -0.00134174878177 0)
(0.827309611269 -0.00119841903535 0)
(0.827268178414 -0.0010565908682 0)
(0.827232785603 -0.000915328677942 0)
(0.827203350763 -0.000782118940052 0)
(0.827178123203 -0.000626815340537 0)
(0.831331975174 -0.000110289985129 0)
(0.831331440943 -0.00032767022001 0)
(0.831331076896 -0.000539196779226 0)
(0.831329919746 -0.000745530455769 0)
(0.831327323337 -0.000947088155866 0)
(0.831322551045 -0.00114422565142 0)
(0.831314808156 -0.00133708601045 0)
(0.831303254429 -0.00152572114665 0)
(0.831287042127 -0.0017100274223 0)
(0.831265328434 -0.00188979727844 0)
(0.831237301212 -0.00206470635094 0)
(0.83120219448 -0.00223433432206 0)
(0.83115930733 -0.00239817086036 0)
(0.831108019649 -0.00255562877621 0)
(0.831047807482 -0.00270605552176 0)
(0.830978256696 -0.00284874639929 0)
(0.830899075055 -0.00298295848198 0)
(0.83081010229 -0.00310792551858 0)
(0.830711317861 -0.00322287368862 0)
(0.830602846093 -0.00332703805756 0)
(0.830484958427 -0.00341967952269 0)
(0.830358072554 -0.0035001019248 0)
(0.830222748301 -0.00356766898189 0)
(0.830079680223 -0.00362182059306 0)
(0.82992968697 -0.00366208806906 0)
(0.829773697618 -0.00368810779159 0)
(0.829612735238 -0.00369963284474 0)
(0.82944789817 -0.00369654217494 0)
(0.829280339471 -0.00367884692569 0)
(0.829111245174 -0.00364669366218 0)
(0.828941812011 -0.00360036433908 0)
(0.828773225278 -0.00354027296522 0)
(0.828606637539 -0.00346695908163 0)
(0.828443148803 -0.00338107827086 0)
(0.828283788739 -0.00328339006466 0)
(0.828129501416 -0.00317474368969 0)
(0.827981132899 -0.00305606219116 0)
(0.827839421938 -0.00292832549655 0)
(0.827704993826 -0.00279255301421 0)
(0.827578357378 -0.00264978632771 0)
(0.827459904872 -0.00250107251893 0)
(0.827349914681 -0.00234744855518 0)
(0.827248556248 -0.00218992714948 0)
(0.82715589704 -0.00202948440594 0)
(0.827071910958 -0.00186704893386 0)
(0.826996487951 -0.00170349363097 0)
(0.826929444892 -0.001539637757 0)
(0.826870529743 -0.0013761603217 0)
(0.82681946296 -0.00121411438028 0)
(0.826775783134 -0.0010521816034 0)
(0.826739433359 -0.000899957200343 0)
(0.826708251807 -0.000720291156851 0)
(0.831474943191 -0.000115770442863 0)
(0.831474845899 -0.000344027503312 0)
(0.831475341215 -0.000566326537535 0)
(0.831475372025 -0.00078345481392 0)