/*--------------------------------*- C++ -*----------------------------------*\
  =========                 |
  \\      /  F ield         | OpenFOAM: The Open Source CFD Toolbox
   \\    /   O peration     | Website:  https://openfoam.org
    \\  /    A nd           | Version:  7
     \\/     M anipulation  |
\*---------------------------------------------------------------------------*/
FoamFile
{
    version     2.0;
    format      ascii;
    class       volVectorField;
    location    "731";
    object      U;
}
// * * * * * * * * * * * * * * * * * * * * * * * * * * * * * * * * * * * * * //

dimensions      [0 1 -1 0 0 0 0];

internalField   nonuniform List<vector> 
38464
(
(0.830002108548 -4.64298368346e-06 0)
(0.830019535048 -1.37647865744e-05 0)
(0.830055125617 -2.26005038775e-05 0)
(0.830107530575 -3.11904318059e-05 0)
(0.830173932631 -3.9556288202e-05 0)
(0.830252574038 -4.77083076115e-05 0)
(0.830342382419 -5.56493907037e-05 0)
(0.830442270645 -6.3375706918e-05 0)
(0.830551053589 -7.08776125237e-05 0)
(0.830667592627 -7.81413315806e-05 0)
(0.830790842982 -8.51504877794e-05 0)
(0.830919823645 -9.18873995569e-05 0)
(0.83105359552 -9.83341534456e-05 0)
(0.831191262661 -0.000104473624577 0)
(0.831331978253 -0.000110290254518 0)
(0.831474946616 -0.000115770730802 0)
(0.831619423465 -0.000120904394437 0)
(0.831764716718 -0.000125683591697 0)
(0.831910187715 -0.000130103766369 0)
(0.832055251966 -0.000134163544321 0)
(0.832199379255 -0.000137864578342 0)
(0.832342093121 -0.000141211444328 0)
(0.832482969865 -0.000144211324325 0)
(0.832621637011 -0.000146873795882 0)
(0.832757771361 -0.000149210430314 0)
(0.832891096602 -0.000151234546336 0)
(0.833021380661 -0.000152960787676 0)
(0.833148432763 -0.000154404893244 0)
(0.833272100401 -0.000155583295029 0)
(0.83339226616 -0.000156512937901 0)
(0.833508844571 -0.000157210923593 0)
(0.833621778959 -0.000157694394328 0)
(0.833731038404 -0.000157980229891 0)
(0.833836614795 -0.000158085015881 0)
(0.833938520043 -0.00015802470478 0)
(0.834036783463 -0.000157815046816 0)
(0.834131449433 -0.000157469548908 0)
(0.834222574331 -0.000157007599124 0)
(0.834310229588 -0.000156418748403 0)
(0.834394475376 -0.000155821066726 0)
(0.830002084679 -1.37384290557e-05 0)
(0.83001943159 -4.07569788988e-05 0)
(0.830054878431 -6.69469101142e-05 0)
(0.830107093856 -9.24197463152e-05 0)
(0.830173287069 -0.000117240105579 0)
(0.830251718353 -0.000141438450941 0)
(0.830341330849 -0.000165022316708 0)
(0.830441053488 -0.000187979726492 0)
(0.830549716221 -0.000210281927895 0)
(0.830666193359 -0.000231887741053 0)
(0.830789450866 -0.000252747931586 0)
(0.830918516357 -0.000272809169992 0)
(0.831052457125 -0.00029201730786 0)
(0.831190381326 -0.000310320393835 0)
(0.831331444014 -0.000327671023148 0)
(0.831474849315 -0.000344028359331 0)
(0.831619850864 -0.000359359434539 0)
(0.831765752849 -0.000373640179989 0)
(0.831911911465 -0.000386855794924 0)
(0.832057735955 -0.000399000958071 0)
(0.832202688953 -0.000410079474146 0)
(0.832346286259 -0.000420103895742 0)
(0.832488096047 -0.000429094691707 0)
(0.832627737594 -0.000437079523506 0)
(0.832764879485 -0.000444092171042 0)
(0.832899237427 -0.000450171675177 0)
(0.833030571685 -0.000455361207129 0)
(0.833158684308 -0.000459707237525 0)
(0.833283416117 -0.000463258481157 0)
(0.833404643629 -0.000466065192503 0)
(0.833522275898 -0.000468178257776 0)
(0.83363625142 -0.000469648667839 0)
(0.833746535025 -0.000470526778794 0)
(0.833853115022 -0.000470862027281 0)
(0.833956000126 -0.000470702111002 0)
(0.834055217561 -0.000470093952326 0)
(0.834150808316 -0.000469078437711 0)
(0.834242831514 -0.000467711407315 0)
(0.834331343845 -0.000465971302595 0)
(0.83441644975 -0.000464167166218 0)
(0.830002073957 -2.24903002881e-05 0)
(0.830019319865 -6.67551174647e-05 0)
(0.830054554192 -0.000109690490255 0)
(0.830106471596 -0.000151472787486 0)
(0.830172324456 -0.000192211243294 0)
(0.830250408974 -0.000231958560658 0)
(0.830339698773 -0.000270727720777 0)
(0.830439152456 -0.000308499456451 0)
(0.830547628358 -0.00034522689617 0)
(0.830664025997 -0.000380841847755 0)
(0.830787332475 -0.000415261991537 0)
(0.830916592323 -0.000448397464653 0)
(0.831050885447 -0.000480156566523 0)
(0.831189328295 -0.000510450617576 0)
(0.831331079963 -0.000539198103566 0)
(0.831475344629 -0.000566327934574 0)
(0.831621372319 -0.000591781927899 0)
(0.831768460406 -0.000615516407751 0)
(0.831915955516 -0.000637503154441 0)
(0.832063255094 -0.000657729611746 0)
(0.83220980825 -0.000676198636667 0)
(0.832355116039 -0.000692927682724 0)
(0.832498731143 -0.00070794774274 0)
(0.832640257027 -0.000721301910983 0)
(0.832779346519 -0.000733043906918 0)
(0.832915699953 -0.00074323636961 0)
(0.833049062871 -0.000751949278274 0)
(0.833179223453 -0.000759258254145 0)
(0.833306009657 -0.000765243104045 0)
(0.833429286261 -0.000769986302522 0)
(0.833548951754 -0.000773571785842 0)
(0.83366493528 -0.000776083716347 0)
(0.833777193474 -0.000777605552913 0)
(0.833885707729 -0.000778219219495 0)
(0.83399048061 -0.000778004046572 0)
(0.834091535327 -0.000777037995053 0)
(0.834188906367 -0.000775389374084 0)
(0.834282658263 -0.000773150581807 0)
(0.834372819297 -0.000770288601334 0)
(0.834459579718 -0.000767306010556 0)
(0.830002053296 -3.09160375488e-05 0)
(0.830019133011 -9.17786296787e-05 0)
(0.83005404023 -0.000150838353823 0)
(0.83010550378 -0.000208346997438 0)
(0.830170834763 -0.000264464396402 0)
(0.830248381618 -0.000319270133728 0)
(0.830337162776 -0.000372786414326 0)
(0.830436179984 -0.000424989213157 0)
(0.830544333248 -0.000475814774306 0)
(0.830660559591 -0.000525168130292 0)
(0.830783877856 -0.000572933113243 0)
(0.830913358182 -0.000618981691736 0)
(0.831048099928 -0.000663182035312 0)
(0.831187232753 -0.000705405444724 0)
(0.831329922808 -0.000745532277787 0)
(0.831475375431 -0.000783456738127 0)
(0.831622836425 -0.000819090525859 0)
(0.831771594114 -0.000852365336327 0)
(0.831920981952 -0.000883234352642 0)
(0.832070380781 -0.00091167278342 0)
(0.83221922045 -0.000937677627818 0)
(0.832366980797 -0.000961266740339 0)
(0.832513192058 -0.00098247739885 0)
(0.832657434626 -0.00100136444463 0)
(0.832799338242 -0.00101799818957 0)
(0.832938580592 -0.00103246213506 0)
(0.833074885452 -0.00104485067445 0)
(0.833208020401 -0.00105526678627 0)
(0.833337794259 -0.00106381985989 0)
(0.833464054248 -0.00107062362818 0)
(0.833586683032 -0.00107579431477 0)
(0.833705595677 -0.00107944896104 0)
(0.833820736487 -0.00108170393871 0)
(0.833932076373 -0.00108267385878 0)
(0.834039608605 -0.0010824699006 0)
(0.834143350167 -0.00108120160405 0)
(0.834243325944 -0.00107896512131 0)
(0.834339607678 -0.00107589039559 0)
(0.834432183358 -0.00107193233281 0)
(0.83452136348 -0.0010677937258 0)
(0.830002025572 -3.89865253679e-05 0)
(0.830018879232 -0.000115747507951 0)
(0.830053338105 -0.000190270221833 0)
(0.830104175334 -0.000262894631288 0)
(0.830168779126 -0.000333837887469 0)
(0.830245566574 -0.000403210965953 0)
(0.830333614944 -0.000471049064343 0)
(0.830431982701 -0.000537326027929 0)
(0.830539624899 -0.0006019625239 0)
(0.830655528541 -0.000664836907458 0)
(0.830778755202 -0.000725798065041 0)
(0.830908410028 -0.000784677506253 0)
(0.831043619537 -0.000841299829197 0)
(0.831183532556 -0.000895491850762 0)
(0.831327326395 -0.000947090460351 0)
(0.831474209857 -0.0009959491238 0)
(0.831623425033 -0.00104194289531 0)
(0.831774250094 -0.00108497202305 0)
(0.831926002712 -0.00112496418754 0)
(0.832078043232 -0.00116187555773 0)
(0.832229777235 -0.0011956907441 0)
(0.832380657484 -0.00122642188 0)
(0.832530185235 -0.00125410693275 0)
(0.832677910874 -0.00127880749271 0)
(0.832823433854 -0.00130060612621 0)
(0.832966401996 -0.00131960352664 0)
(0.833106510168 -0.00133591551021 0)
(0.8332434985 -0.00134967005996 0)
(0.833377150128 -0.00136100441617 0)
(0.833507288663 -0.0013700623836 0)
(0.833633775334 -0.00137699180124 0)
(0.833756506125 -0.00138194233035 0)
(0.833875408479 -0.00138506339759 0)
(0.833990438953 -0.00138650272047 0)
(0.834101578004 -0.00138640403251 0)
(0.834208833889 -0.00138490932276 0)
(0.834312218496 -0.00138214354542 0)
(0.834411812057 -0.00137827574458 0)
(0.834507550944 -0.00137324784242 0)
(0.834599897442 -0.00136797381067 0)
(0.8300019897 -4.66848094515e-05 0)
(0.830018549118 -0.000138619816556 0)
(0.830052422337 -0.000227926485539 0)
(0.830102438212 -0.000315043637648 0)
(0.830166081142 -0.000400253039169 0)
(0.830241852465 -0.000483702663804 0)
(0.830328901451 -0.000565445516712 0)
(0.830426356514 -0.000645456986606 0)
(0.83053324119 -0.000723644378968 0)
(0.830648605237 -0.000799860037741 0)
(0.830771564585 -0.000873917073552 0)
(0.830901269665 -0.00094560418588 0)
(0.831036882999 -0.0010146986352 0)
(0.831177579817 -0.00108097764897 0)
(0.8313225541 -0.00114422842818 0)
(0.831471021816 -0.00120425652766 0)
(0.831622223283 -0.00126089252407 0)
(0.831775426715 -0.00131399692557 0)
(0.831929932588 -0.00136346347223 0)
(0.832085077861 -0.00140922088822 0)
(0.832240239686 -0.00145123331004 0)
(0.832394838505 -0.00148949950045 0)
(0.832548340511 -0.00152405113042 0)
(0.832700259354 -0.00155495025044 0)
(0.832850157084 -0.00158228624615 0)
(0.832997644312 -0.0016061723713 0)
(0.833142379668 -0.00162674213402 0)
(0.833284068605 -0.00164414557275 0)
(0.83342246167 -0.001658545666 0)
(0.833557352301 -0.00167011484709 0)
(0.833688574251 -0.00167903183023 0)
(0.83381599885 -0.0016854786731 0)
(0.833939531721 -0.00168963817351 0)
(0.834059110654 -0.00169169182494 0)
(0.834174699437 -0.0016918169506 0)
(0.834286294563 -0.00169018927037 0)
(0.834393891381 -0.00168696388612 0)
(0.834497579155 -0.00168235113777 0)
(0.834597232144 -0.00167627879044 0)
(0.834693492188 -0.00166988671813 0)
(0.830001944774 -5.39943871055e-05 0)
(0.830018135086 -0.000160346570238 0)
(0.830051272015 -0.000263727130486 0)
(0.830100250794 -0.000364685865693 0)
(0.830162670636 -0.000463578563834 0)
(0.830237132125 -0.000560597528368 0)
(0.830322869186 -0.000655819614132 0)
(0.830419093291 -0.000749226447233 0)
(0.830524910111 -0.000840715022692 0)
(0.830639445433 -0.000930113006648 0)
(0.830761881923 -0.00101719731499 0)
(0.830891426652 -0.00110171170842 0)
(0.831027288293 -0.00118338226869 0)
(0.831168677219 -0.00126193122646 0)
(0.831314811208 -0.00133708924725 0)
(0.83146491879 -0.00140860596167 0)
(0.83161824208 -0.00147625850476 0)
(0.831774041103 -0.00153985807654 0)
(0.831931599134 -0.00159925454434 0)
(0.83209022809 -0.00165433925134 0)
(0.83224927352 -0.00170504612374 0)
(0.832408119063 -0.00175135133521 0)
(0.832566190257 -0.00179327167951 0)
(0.832722957573 -0.00183086196698 0)
(0.832877938572 -0.00186421160081 0)
(0.833030699178 -0.00189344065494 0)
(0.833180854108 -0.00191869556739 0)
(0.83332806649 -0.00194014474667 0)
(0.833472046789 -0.00195797413566 0)
(0.833612551113 -0.00197238299662 0)
(0.833749378981 -0.00198357986776 0)
(0.833882370858 -0.0019917789583 0)
(0.834011404856 -0.00199719672894 0)
(0.834136394986 -0.00200004936214 0)
(0.834257283799 -0.00200054899473 0)
(0.834374052459 -0.00199890680105 0)
(0.834486675686 -0.00199530965673 0)
(0.834595251624 -0.00199001211438 0)
(0.834699582474 -0.00198292622823 0)
(0.834800513516 -0.00197543659767 0)
(0.830001889993 -6.08979393518e-05 0)
(0.830017629581 -0.000180876585866 0)
(0.830049865225 -0.000297589803792 0)
(0.830097568597 -0.000411711600764 0)
(0.83015847233 -0.000523681944892 0)
(0.830231290905 -0.0006337454386 0)
(0.830315355083 -0.000742009533775 0)
(0.830409972232 -0.000848467610355 0)
(0.830514343864 -0.000953010321467 0)
(0.830627685447 -0.00105544287107 0)
(0.83074925949 -0.00115550637256 0)
(0.830878342093 -0.00125289813261 0)
(0.831014199605 -0.00134728963575 0)
(0.831156087898 -0.00143834282409 0)
(0.831303257477 -0.00152572483617 0)
(0.8314549567 -0.00160912087041 0)
(0.831610434961 -0.00168824490846 0)
(0.831768947681 -0.00176284819943 0)
(0.831929762608 -0.00183272555548 0)
(0.832092166421 -0.00189771950782 0)
(0.832255471114 -0.00195772248646 0)
(0.83241901997 -0.00201267717191 0)
(0.832582192936 -0.00206257529277 0)
(0.832744411202 -0.00210745508248 0)
(0.83290514084 -0.00214739771875 0)
(0.833063895447 -0.00218252295845 0)
(0.833220237781 -0.00221298428868 0)
(0.833373780443 -0.00223896376085 0)
(0.833524185645 -0.00226066679126 0)
(0.833671164235 -0.00227831701873 0)
(0.833814473924 -0.00229215144197 0)
(0.833953917234 -0.00230241587983 0)
(0.834089338245 -0.00230936079247 0)
(0.834220621333 -0.0023132379545 0)
(0.834347682514 -0.00231429586809 0)
(0.83447048329 -0.00231278306869 0)
(0.834588973158 -0.00230892033009 0)
(0.834703258069 -0.00230300976582 0)
(0.834813058688 -0.00229494611148 0)
(0.834919443936 -0.0022863811199 0)
(0.8300018246 -6.73779287555e-05 0)
(0.830017025478 -0.000200157973387 0)
(0.830048181415 -0.000329429831159 0)
(0.830094350169 -0.000456005084333 0)
(0.830153416099 -0.000580418337397 0)
(0.830224221526 -0.000702975135719 0)
(0.830306205386 -0.000823821261422 0)
(0.83039878322 -0.000942968535878 0)
(0.830501265914 -0.00106030649968 0)
(0.830612972476 -0.00117562139658 0)
(0.830733258948 -0.00128862014153 0)
(0.830861483867 -0.00139895315687 0)
(0.830996984149 -0.00150623476754 0)
(0.831139073223 -0.00161006194007 0)
(0.831287045173 -0.00171003155357 0)
(0.831440177554 -0.00180575580228 0)
(0.831597734656 -0.00189687534451 0)
(0.831758972986 -0.00198307006755 0)
(0.831923148424 -0.00206406741654 0)
(0.83208952399 -0.00213964832756 0)
(0.832257377675 -0.00220965083355 0)
(0.832426010054 -0.00227397151818 0)
(0.832594751404 -0.00233256502573 0)
(0.83276296806 -0.00238544191024 0)
(0.832930067805 -0.00243266510465 0)
(0.833095504151 -0.00247434533219 0)
(0.833258779489 -0.00251063574478 0)
(0.833419447079 -0.00254172609489 0)
(0.833577111962 -0.00256783667492 0)
(0.833731430861 -0.00258921227897 0)
(0.833882111145 -0.0026061163287 0)
(0.834028909265 -0.0026188253892 0)
(0.834171627734 -0.00262762397751 0)
(0.834310114391 -0.00263280042528 0)
(0.834444252496 -0.00263464117997 0)
(0.834573978589 -0.00263343441459 0)
(0.834699211676 -0.00262943713033 0)
(0.834820063301 -0.00262300309153 0)
(0.834936163623 -0.00261400766956 0)
(0.83504882116 -0.00260439644432 0)
(0.830001747949 -7.34170596219e-05 0)
(0.830016316683 -0.000218139243521 0)
(0.830046202909 -0.000359162193343 0)
(0.830090559438 -0.000497448256976 0)
(0.830147440047 -0.000633637349829 0)
(0.830215827793 -0.000768105214844 0)
(0.830295280086 -0.000901044590023 0)
(0.830385332145 -0.00103249353763 0)
(0.830485417362 -0.00116234700762 0)
(0.830594972132 -0.00129037720494 0)
(0.830713460134 -0.0014162599116 0)
(0.830840336594 -0.00153959964453 0)
(0.830975023186 -0.0016599522794 0)
(0.831116904634 -0.00177684613993 0)
(0.831265331476 -0.00188980184471 0)
(0.831419622065 -0.00199835034805 0)
(0.831579065582 -0.00210204877429 0)
(0.831742927714 -0.00220049375079 0)
(0.831910458434 -0.00229333218705 0)
(0.832080900816 -0.00238026938855 0)
(0.832253500268 -0.00246107456644 0)
(0.832427513836 -0.00253558381135 0)
(0.832602219213 -0.002603700754 0)
(0.832776923084 -0.00266539514802 0)
(0.832950968518 -0.00272069969462 0)
(0.833123741216 -0.00276970543799 0)
(0.833294674463 -0.00281255607222 0)
(0.833463252786 -0.00284944151058 0)
(0.833629014267 -0.0028805910096 0)
(0.833791551676 -0.00290626616625 0)
(0.833950512329 -0.00292675397674 0)
(0.834105597317 -0.00294236025347 0)
(0.834256558796 -0.00295340330377 0)
(0.834403200009 -0.00296020879479 0)
(0.834545364039 -0.00296310277854 0)
(0.834682956114 -0.00296241551547 0)
(0.834815858513 -0.00295844289883 0)
(0.834944185099 -0.00295159501824 0)
(0.835067466561 -0.0029417255809 0)
(0.835187263445 -0.00293110491383 0)
(0.830001659551 -7.89988073628e-05 0)
(0.830015498497 -0.000234770938896 0)
(0.830043915868 -0.000386704367333 0)
(0.830086167697 -0.000535924769358 0)
(0.83014049388 -0.00068318789769 0)
(0.830206029831 -0.000828949266611 0)
(0.830282460402 -0.000973457919502 0)
(0.830369450929 -0.00111678703645 0)
(0.830466569688 -0.00125884489597 0)
(0.830573383942 -0.00139939622741 0)
(0.830689479204 -0.0015380905374 0)
(0.830814422238 -0.00167448924831 0)
(0.830947734773 -0.0018080902259 0)
(0.831088888156 -0.00193835105857 0)
(0.831237304253 -0.00206471133815 0)
(0.83139235616 -0.00218661343968 0)
(0.831553370514 -0.00230352114866 0)
(0.831719632953 -0.00241493589876 0)
(0.831890396173 -0.00252041033125 0)
(0.832064889538 -0.00261955908989 0)
(0.832242329577 -0.0027120666947 0)
(0.832421930943 -0.00279769258541 0)
(0.832602917384 -0.00287627340619 0)
(0.83278453225 -0.00294772280351 0)
(0.832966048149 -0.00301202899353 0)
(0.833146775451 -0.0030692504698 0)
(0.833326069426 -0.00311951022318 0)
(0.833503335901 -0.00316298884717 0)
(0.833678035388 -0.0031999169428 0)
(0.833849685737 -0.00323056711251 0)
(0.834017863263 -0.00325524592837 0)
(0.834182202992 -0.00327428607724 0)
(0.834342396525 -0.0032880388162 0)
(0.834498192967 -0.00329686759154 0)
(0.83464938646 -0.00330113965021 0)
(0.834795843171 -0.00330122989578 0)
(0.834937401349 -0.0032974760561 0)
(0.835074172397 -0.0032903498112 0)
(0.835205578683 -0.00327968060672 0)
(0.835333440825 -0.00326809898588 0)
(0.830001559097 -8.41079922226e-05 0)
(0.830014567886 -0.000250007355659 0)
(0.830041311115 -0.00041197919323 0)
(0.830081155174 -0.00057132399029 0)
(0.83013254152 -0.000728923398447 0)
(0.830194767898 -0.000885322402457 0)
(0.830267653953 -0.00104083630409 0)
(0.830351004138 -0.00119558332316 0)
(0.830444532867 -0.00134949442868 0)
(0.830547951 -0.00150233521865 0)
(0.830660979803 -0.00165373580863 0)
(0.830783312701 -0.00180321947443 0)
(0.830914587604 -0.00195022869708 0)
(0.831054379213 -0.00209415024012 0)
(0.831202197516 -0.00223433972018 0)
(0.831357486678 -0.00237014498153 0)
(0.831519626074 -0.00250092764993 0)
(0.831687935001 -0.00262608242569 0)
(0.831861680533 -0.00274505382797 0)
(0.832040087524 -0.00285735006918 0)
(0.832222350094 -0.00296255387872 0)
(0.832407644091 -0.00306033015028 0)
(0.832595140003 -0.00315043047975 0)
(0.832784015727 -0.00323269471549 0)
(0.83297346871 -0.00330704980187 0)
(0.833162727011 -0.0033735062305 0)
(0.833351058996 -0.00343215251162 0)
(0.833537781415 -0.00348314808725 0)
(0.833722265755 -0.00352671511996 0)
(0.833903942854 -0.0035631295973 0)
(0.834082305674 -0.00359271209667 0)
(0.834256910926 -0.0036158186539 0)
(0.834427377791 -0.0036328317249 0)
(0.834593390039 -0.00364415249102 0)
(0.834754682447 -0.00365019067751 0)
(0.8349110728 -0.00365136847553 0)
(0.835062346605 -0.00364806851338 0)
(0.835208606486 -0.00364083003637 0)
(0.835349157292 -0.00362945515155 0)
(0.83548608388 -0.00361697520805 0)
(0.830001446481 -8.87313363771e-05 0)
(0.830013523675 -0.000263808216891 0)
(0.830038384664 -0.000434917689174 0)
(0.830075512182 -0.00060354503873 0)
(0.830123563001 -0.000770707101074 0)
(0.830182005277 -0.000937047903611 0)
(0.830250798875 -0.00110295936907 0)
(0.830329894608 -0.00126861557675 0)
(0.830419162744 -0.00143398093717 0)
(0.830518469289 -0.00159883209055 0)
(0.830627684472 -0.00176278882632 0)
(0.830746643328 -0.00192534367391 0)
(0.830875116549 -0.00208588888528 0)
(0.831012800014 -0.00224374287172 0)
(0.831159310363 -0.00239817665818 0)
(0.831314181448 -0.00254843966754 0)
(0.831476863456 -0.00269378410212 0)
(0.831646726199 -0.00283348743131 0)
(0.831823066136 -0.0029668725588 0)
(0.832005116225 -0.00309332523155 0)
(0.832192057936 -0.00321230832341 0)
(0.83238303493 -0.00332337274672 0)
(0.832577167743 -0.00342616488956 0)
(0.832773568834 -0.00352043062116 0)
(0.832971357339 -0.00360601603524 0)
(0.833169672985 -0.00368286523245 0)
(0.833367688693 -0.00375101551787 0)
(0.833564621547 -0.00381059048724 0)
(0.833759741836 -0.00386179146523 0)
(0.833952380146 -0.00390488782906 0)
(0.834141932242 -0.00394020663314 0)
(0.83432786253 -0.00396812208411 0)
(0.834509704015 -0.00398904492013 0)
(0.83468706196 -0.00400341313785 0)
(0.834859599397 -0.00401167981819 0)
(0.835027074477 -0.00401431690615 0)
(0.835189209558 -0.00401175516577 0)
(0.835346090224 -0.00400460794035 0)
(0.835496894056 -0.00399264654061 0)
(0.835643969929 -0.00397934911489 0)
(0.830001321809 -9.28579778603e-05 0)
(0.830012366654 -0.00027614022363 0)
(0.830035138069 -0.000455461689134 0)
(0.83006923977 -0.00063250058825 0)
(0.830113555674 -0.000808417140562 0)
(0.830167730217 -0.000983963601798 0)
(0.83023186675 -0.00115961904429 0)
(0.830306067582 -0.00133562494449 0)
(0.830390366616 -0.00151199117932 0)
(0.830484794903 -0.00168851741777 0)
(0.830589383623 -0.0018648244727 0)
(0.830704123737 -0.00204038417063 0)
(0.83082893529 -0.00221454660282 0)
(0.830963653857 -0.0023865672819 0)
(0.831108022675 -0.00255563496361 0)
(0.831261686023 -0.00272089942885 0)
(0.831424185724 -0.00288149846967 0)
(0.831594962239 -0.00303658352169 0)
(0.831773360071 -0.0031853434138 0)
(0.83195863673 -0.0033270256508 0)
(0.832149974657 -0.0034609546797 0)
(0.832346495604 -0.00358654670808 0)
(0.832547276786 -0.00370332079296 0)
(0.832751368043 -0.00381090607882 0)
(0.832957809256 -0.00390904523289 0)
(0.833165647309 -0.0039975942781 0)
(0.833373951968 -0.00407651917222 0)
(0.83358183017 -0.00414588957744 0)
(0.83378843833 -0.00420587035604 0)
(0.833992992453 -0.00425671134565 0)
(0.834194775735 -0.00429873597725 0)
(0.834393144391 -0.00433232932902 0)
(0.834587529374 -0.00435792582212 0)
(0.83477744199 -0.00437599816328 0)
(0.83496245886 -0.00438704289083 0)
(0.835142264962 -0.00439158386589 0)
(0.835316507048 -0.00439010316731 0)
(0.835485243155 -0.00438329539843 0)
(0.835647512912 -0.00437089700274 0)
(0.835805924608 -0.00435688506213 0)
(0.830001185403 -9.64799110323e-05 0)
(0.830011099615 -0.00028697839361 0)
(0.830031578514 -0.000473566141717 0)
(0.830062350037 -0.0006581202443 0)
(0.830102534791 -0.000841951130259 0)
(0.830151956998 -0.00102592779979 0)
(0.830210864363 -0.00121062690444 0)
(0.83027951344 -0.00139636931923 0)
(0.830358107208 -0.0015832234937 0)
(0.830446849551 -0.0017710258042 0)
(0.830545942861 -0.00195941170397 0)
(0.830655547102 -0.00214784512475 0)
(0.830775747689 -0.00233564521388 0)
(0.830906538574 -0.00252201344404 0)
(0.831047810498 -0.00270606208599 0)
(0.83119934071 -0.00288684340458 0)
(0.831360786079 -0.00306337880534 0)
(0.831531681134 -0.00323468737866 0)
(0.831711440938 -0.00339981321747 0)
(0.831899368237 -0.00355785078906 0)
(0.832094664466 -0.00370796762252 0)
(0.832296444112 -0.0038494236658 0)
(0.832503751778 -0.00398158680775 0)
(0.832715581132 -0.00410394423224 0)
(0.832930894847 -0.00421610946301 0)
(0.833148644706 -0.00431782515615 0)
(0.833367791026 -0.00440896188468 0)
(0.833587320744 -0.00448951332151 0)
(0.833806263522 -0.00455958834901 0)
(0.834023705563 -0.00461940071625 0)
(0.834238800585 -0.00466925686955 0)
(0.834450778722 -0.00470954269617 0)
(0.834658950605 -0.0047407094485 0)
(0.834862715544 -0.00476326076219 0)
(0.83506154637 -0.00477773558699 0)
(0.835255038632 -0.00478471126335 0)
(0.835442748466 -0.00478472414479 0)
(0.835624693198 -0.00477855780439 0)
(0.835799762371 -0.00476590903411 0)
(0.835970814449 -0.00475131273147 0)
(0.830001037797 -9.95923412692e-05 0)
(0.830009727308 -0.000296307150346 0)
(0.830027718744 -0.000489201017927 0)
(0.830054865972 -0.000680353406774 0)
(0.830090533435 -0.000871230144276 0)
(0.830134726072 -0.00106282454541 0)
(0.830187834281 -0.00125582086338 0)
(0.830250268974 -0.00145063154003 0)
(0.830322404968 -0.00164739750557 0)
(0.830404624195 -0.00184600700493 0)
(0.830497308242 -0.00204612589001 0)
(0.830600797363 -0.00224722577396 0)
(0.830715357114 -0.00244860938389 0)
(0.830841158042 -0.00264943672384 0)
(0.830978259695 -0.00284875332904 0)
(0.83112659614 -0.0030455200594 0)
(0.831285964965 -0.00323864375402 0)
(0.831456021342 -0.00342700820255 0)
(0.831636277337 -0.00360950480105 0)
(0.831826106167 -0.00378506203631 0)
(0.83202475121 -0.00395267289433 0)
(0.832231339393 -0.00411141930907 0)
(0.832444898362 -0.00426049289601 0)
(0.832664376605 -0.00439921136551 0)
(0.832888665587 -0.00452703022771 0)
(0.833116622884 -0.00464354962509 0)
(0.833347095338 -0.00474851637037 0)
(0.833578941298 -0.00484182148877 0)
(0.833811051123 -0.00492349374691 0)
(0.834042365388 -0.00499368980742 0)
(0.83427189003 -0.00505268170162 0)
(0.834498709121 -0.00510084247976 0)
(0.834721992125 -0.00513863040918 0)
(0.83494100535 -0.00516657394337 0)
(0.835155097332 -0.00518525174734 0)
(0.835363754701 -0.00519529519857 0)
(0.835566424928 -0.00519729740073 0)
(0.835763068267 -0.00519213903081 0)
(0.835952410073 -0.00517947152849 0)
(0.836137544855 -0.00516445404087 0)
(0.830000879724 -0.000102193937417 0)
(0.830008256336 -0.000304121110905 0)
(0.830023576765 -0.000502352731464 0)
(0.830046821024 -0.000699171494988 0)
(0.830077601903 -0.000896201950833 0)
(0.830116103405 -0.00109456807506 0)
(0.830162854345 -0.00129507102427 0)
(0.830218417297 -0.00149822678955 0)
(0.8302833387 -0.00170426315125 0)
(0.830358180781 -0.00191313654831 0)
(0.83044350953 -0.00212456089655 0)
(0.830539854303 -0.00233803370143 0)
(0.830647673691 -0.00255285911772 0)
(0.830767331828 -0.00276817217319 0)
(0.830899078033 -0.00298296576489 0)
(0.83104302772 -0.00319612005168 0)
(0.831199146612 -0.00340643368826 0)
(0.831367239934 -0.00361265649339 0)
(0.831546947042 -0.00381352291464 0)
(0.831737741571 -0.00400778540851 0)
(0.831938937162 -0.00419424664239 0)
(0.832149698638 -0.0043717894485 0)
(0.832369058165 -0.00453940346415 0)
(0.832595935649 -0.00469620756938 0)
(0.832829162401 -0.00484146739122 0)
(0.833067506977 -0.00497460743342 0)
(0.833309702001 -0.00509521763975 0)
(0.833554470847 -0.005203054511 0)
(0.833800553044 -0.00529803713326 0)
(0.834046727618 -0.00538023872188 0)
(0.834291833274 -0.0054498744035 0)
(0.834534786008 -0.00550728619825 0)
(0.834774590487 -0.00555292567879 0)
(0.835010355714 -0.00558733687414 0)
(0.835241281777 -0.00561113312304 0)
(0.835466723097 -0.00562499887673 0)
(0.835685996693 -0.00562958558224 0)
(0.835898985574 -0.00562587941123 0)
(0.836104234068 -0.00561347955001 0)
(0.836305053345 -0.00559824425981 0)
(0.830000712097 -0.000104286982393 0)
(0.830006694995 -0.000310425573935 0)
(0.830019175426 -0.000513025076552 0)
(0.830038258254 -0.000714569512714 0)
(0.83006380652 -0.000916843430638 0)
(0.830096179008 -0.0011211063387 0)
(0.830136036068 -0.0013282845478 0)
(0.83018408635 -0.00153900902097 0)
(0.830241044521 -0.00175360880707 0)
(0.830307652041 -0.00197212562959 0)
(0.830384661228 -0.00219434067592 0)
(0.830472796338 -0.00241979792479 0)
(0.830572719209 -0.00264782400161 0)
(0.830685002551 -0.00287754941477 0)
(0.83081010524 -0.00310793314581 0)
(0.83094834841 -0.00333779043617 0)
(0.831099894374 -0.00356582344941 0)
(0.831264730106 -0.00379065457493 0)
(0.831442656087 -0.00401086188504 0)
(0.831633281009 -0.00422501582963 0)
(0.831836022759 -0.00443171604151 0)
(0.832050115872 -0.00462962693787 0)
(0.832274625236 -0.00481751082693 0)
(0.832508465482 -0.00499425724789 0)
(0.832750425168 -0.00515890747542 0)
(0.832999194621 -0.00531067332654 0)
(0.833253396118 -0.00544894976323 0)
(0.833511615038 -0.00557332107919 0)
(0.833772430588 -0.00568356084686 0)
(0.834034444964 -0.00577962607395 0)
(0.834296309522 -0.00586164628709 0)
(0.834556748292 -0.00592990854865 0)
(0.834814574665 -0.00598483898952 0)
(0.835068712398 -0.00602698378701 0)
(0.835318184824 -0.00605698266833 0)
(0.835562186392 -0.00607556994208 0)
(0.835799877413 -0.00608345557045 0)
(0.836031038885 -0.00608173956655 0)
(0.836254013708 -0.00606996037339 0)
(0.836472304609 -0.00605475968006 0)
(0.830000535988 -0.000105877416123 0)
(0.830005053058 -0.00031523668724 0)
(0.830014541829 -0.000521239639107 0)
(0.830029229313 -0.000726566903485 0)
(0.830049228044 -0.000933162124766 0)
(0.830075064818 -0.00114242351156 0)
(0.830107522118 -0.00135540941741 0)
(0.830147446202 -0.00157287624261 0)
(0.830195713271 -0.00179526832211 0)
(0.830253239399 -0.00202273003339 0)
(0.830320961509 -0.00225513011753 0)
(0.830399800907 -0.00249208156123 0)
(0.830490629549 -0.00273295740187 0)
(0.830594240809 -0.00297690793026 0)
(0.830711320774 -0.00322288164973 0)
(0.830842419555 -0.00346965011624 0)
(0.830987924615 -0.00371583662691 0)
(0.831148037874 -0.00395994882386 0)
(0.831322757749 -0.00420041492464 0)
(0.831511867061 -0.00443562281017 0)
(0.831714927674 -0.00466396081237 0)
(0.831931282471 -0.00488385879448 0)
(0.832160064811 -0.0050938279851 0)
(0.832400215233 -0.00529249795668 0)
(0.832650504683 -0.00547864925615 0)
(0.832909563224 -0.00565124037807 0)
(0.833175912841 -0.00580942809209 0)
(0.833448002798 -0.00595258052475 0)
(0.83372424584 -0.00608028278835 0)
(0.834003053775 -0.00619233540907 0)
(0.834282870551 -0.00628874608878 0)
(0.834562202894 -0.00636971586112 0)
(0.834839643617 -0.0064356202064 0)
(0.835113899388 -0.00648698851254 0)
(0.835383783775 -0.00652447417688 0)
(0.835648298274 -0.00654885493379 0)
(0.835906414832 -0.00656089724179 0)
(0.836157782156 -0.0065618228251 0)
(0.836400516623 -0.00655109875949 0)
(0.836638281046 -0.00653624504834 0)
(0.830000352599 -0.000106974780842 0)
(0.830003341536 -0.000318581326397 0)
(0.830009706654 -0.000527035731112 0)
(0.830019793099 -0.000735207733009 0)
(0.830033959647 -0.000945196919782 0)
(0.830052891962 -0.00115854148147 0)
(0.830077482929 -0.001376437045 0)
(0.830108705164 -0.0015997745682 0)
(0.830147586419 -0.00182912680609 0)
(0.830195209064 -0.00206475789787 0)
(0.83025268893 -0.00230664491842 0)
(0.830321142443 -0.00255449380512 0)
(0.830401654459 -0.00280775037826 0)
(0.830495247366 -0.00306561253277 0)
(0.830602848959 -0.0033270463449 0)
(0.830725259342 -0.00359080652447 0)
(0.830863118659 -0.00385546155073 0)
(0.831016877433 -0.00411942393683 0)
(0.831186770943 -0.00438098566838 0)
(0.831372799061 -0.00463835829358 0)
(0.831574712909 -0.00488971662284 0)
(0.8317920094 -0.00513324465889 0)
(0.832023934358 -0.00536718201134 0)
(0.832269494395 -0.00558986895024 0)
(0.832527477214 -0.0057997881217 0)
(0.8327964795 -0.00599560114481 0)
(0.833074941091 -0.00617617850821 0)
(0.833361183787 -0.00634062162584 0)
(0.83365345284 -0.00648827634359 0)