/*--------------------------------*- C++ -*----------------------------------*\
  =========                 |
  \\      /  F ield         | OpenFOAM: The Open Source CFD Toolbox
   \\    /   O peration     | Website:  https://openfoam.org
    \\  /    A nd           | Version:  7
     \\/     M anipulation  |
\*---------------------------------------------------------------------------*/
FoamFile
{
    version     2.0;
    format      ascii;
    class       volVectorField;
    location    "425";
    object      U;
}
// * * * * * * * * * * * * * * * * * * * * * * * * * * * * * * * * * * * * * //

dimensions      [0 1 -1 0 0 0 0];

internalField   nonuniform List<vector> 
34121
(
(0.780002016841 -4.61592853877e-06 0)
(0.780001992143 -1.36508881703e-05 0)
(0.780001980521 -2.23283431682e-05 0)
(0.780001958479 -3.06636969863e-05 0)
(0.780001928898 -3.86262151654e-05 0)
(0.780001890625 -4.61973852132e-05 0)
(0.780001842729 -5.33591748051e-05 0)
(0.780001784394 -6.00928947717e-05 0)
(0.780001714871 -6.63798773366e-05 0)
(0.780001633547 -7.22020146964e-05 0)
(0.780001539994 -7.75423733393e-05 0)
(0.780001433992 -8.23858359603e-05 0)
(0.780001315553 -8.67197125783e-05 0)
(0.780001184921 -9.05342819327e-05 0)
(0.780001042579 -9.38232396634e-05 0)
(0.780000889235 -9.65840321848e-05 0)
(0.780000725804 -9.88180700829e-05 0)
(0.780000553382 -0.00010053081432 0)
(0.78000037322 -0.000101731743099 0)
(0.780000186686 -0.000102434203671 0)
(0.779999995233 -0.000102655167071 0)
(0.779999800363 -0.000102414896432 0)
(0.779999603588 -0.000101736552209 0)
(0.779999406403 -0.000100645747335 0)
(0.779999210253 -9.91700766398e-05 0)
(0.779999016506 -9.73386319341e-05 0)
(0.779998826435 -9.51815246568e-05 0)
(0.7799986412 -9.27294234336e-05 0)
(0.779998461832 -9.00131240954e-05 0)
(0.779998289232 -8.70631540211e-05 0)
(0.779998124162 -8.39094241117e-05 0)
(0.779997967247 -8.05809247547e-05 0)
(0.779997818979 -7.71054740944e-05 0)
(0.779997679723 -7.35095122e-05 0)
(0.779997549724 -6.98179456462e-05 0)
(0.779997429115 -6.60540324835e-05 0)
(0.779997317934 -6.22393124957e-05 0)
(0.779997216127 -5.83935683317e-05 0)
(0.779997123565 -5.45348231945e-05 0)
(0.779997040055 -5.06793600008e-05 0)
(0.779996965348 -4.68417693633e-05 0)
(0.779996899154 -4.30350081767e-05 0)
(0.779996841148 -3.92704778914e-05 0)
(0.779996790982 -3.55581085319e-05 0)
(0.779996748293 -3.19064689834e-05 0)
(0.779996712719 -2.83228584704e-05 0)
(0.77999668388 -2.48131170769e-05 0)
(0.779996661175 -2.13814269805e-05 0)
(0.779996644038 -1.80367782666e-05 0)
(0.779996635074 -1.48083214525e-05 0)
(0.780018679624 -1.36854102617e-05 0)
(0.780018571145 -4.04992310979e-05 0)
(0.780018451128 -6.62771348418e-05 0)
(0.78001825145 -9.10335215162e-05 0)
(0.780017980259 -0.000114683565383 0)
(0.780017627678 -0.000137180510009 0)
(0.780017185873 -0.000158470768139 0)
(0.78001664714 -0.000178499052263 0)
(0.780016004412 -0.000197210032929 0)
(0.780015251891 -0.000214549702462 0)
(0.780014385434 -0.000230467261682 0)
(0.78001340282 -0.000244917048024 0)
(0.780012303941 -0.000257860375581 0)
(0.780011090872 -0.000269267173827 0)
(0.780009767877 -0.000279117357805 0)
(0.780008341308 -0.000287401861109 0)
(0.780006819457 -0.000294123317185 0)
(0.780005212316 -0.000299296360509 0)
(0.780003531323 -0.00030294757536 0)
(0.780001789042 -0.000305115098607 0)
(0.779999998848 -0.000305847932161 0)
(0.779998174586 -0.000305204990021 0)
(0.779996330256 -0.000303253952663 0)
(0.779994479699 -0.000300069965007 0)
(0.779992636327 -0.000295734251361 0)
(0.77999081287 -0.000290332678958 0)
(0.779989021185 -0.000283954336887 0)
(0.779987272084 -0.000276690155048 0)
(0.779985575227 -0.000268631613403 0)
(0.779983939036 -0.000259869551049 0)
(0.779982370666 -0.000250493109429 0)
(0.779980875997 -0.000240588811028 0)
(0.779979459664 -0.000230239787979 0)
(0.779978125105 -0.000219525150424 0)
(0.779976874641 -0.000208519501407 0)
(0.779975709553 -0.000197292578861 0)
(0.779974630187 -0.000185909029307 0)
(0.779973636049 -0.000174428275672 0)
(0.779972725919 -0.000162904497542 0)
(0.779971897942 -0.00015138667566 0)
(0.77997114974 -0.000139918725725 0)
(0.779970478497 -0.000128539662147 0)
(0.779969881051 -0.000117283827333 0)
(0.779969353967 -0.000106181119332 0)
(0.779968893612 -9.52572696708e-05 0)
(0.779968496255 -8.45343554436e-05 0)
(0.779968158121 -7.40314252003e-05 0)
(0.779967874538 -6.37608149086e-05 0)
(0.779967639148 -5.37190595277e-05 0)
(0.779967454426 -4.39016372822e-05 0)
(0.780052708325 -2.24718271663e-05 0)
(0.780052448106 -6.65286106351e-05 0)
(0.780052100521 -0.000108914180061 0)
(0.780051550581 -0.000149627905709 0)
(0.780050799401 -0.000188541612981 0)
(0.78004982032 -0.000225587738063 0)
(0.78004859167 -0.000260678656476 0)
(0.780047091078 -0.000293725104323 0)
(0.780045298122 -0.000324636480259 0)
(0.780043195907 -0.000353323273144 0)
(0.780040772111 -0.000379700334501 0)
(0.780038019796 -0.000403690093758 0)
(0.780034937934 -0.000425225671202 0)
(0.78003153166 -0.000444253678145 0)
(0.780027812281 -0.000460736595694 0)
(0.780023797046 -0.000474654612946 0)
(0.780019508718 -0.000486006898008 0)
(0.780014974963 -0.000494812249298 0)
(0.780010227601 -0.000501109166003 0)
(0.780005301766 -0.000504955342609 0)
(0.780000234981 -0.000506426669341 0)
(0.779995066241 -0.000505615780682 0)
(0.779989835085 -0.000502630262692 0)
(0.779984580732 -0.000497590581486 0)
(0.779979341275 -0.000490627845082 0)
(0.779974152996 -0.000481881460893 0)
(0.779969049762 -0.000471496791837 0)
(0.779964062565 -0.000459622862772 0)
(0.779959219159 -0.000446410191061 0)
(0.779954543844 -0.000432008776589 0)
(0.779950057322 -0.000416566294462 0)
(0.779945776701 -0.000400226514545 0)
(0.77994171553 -0.000383127954576 0)
(0.779937883966 -0.00036540277225 0)
(0.779934288942 -0.000347175896798 0)
(0.779930934432 -0.00032856437843 0)
(0.779927821696 -0.000309676957673 0)
(0.779924949595 -0.000290613795572 0)
(0.779922314862 -0.000271466406816 0)
(0.77991991242 -0.000252317696177 0)
(0.77991773565 -0.000233242158193 0)
(0.77991577668 -0.000214306126917 0)
(0.779914026627 -0.000195568160675 0)
(0.779912475843 -0.00017707943246 0)
(0.779911114093 -0.000158884071031 0)
(0.779909930803 -0.000141019640458 0)
(0.779908915468 -0.000123520361405 0)
(0.779908056891 -0.000106419007401 0)
(0.779907337274 -8.97000115416e-05 0)
(0.779906734613 -7.30537106689e-05 0)
(0.78010281683 -3.10161472851e-05 0)
(0.780102355291 -9.18527530623e-05 0)
(0.780101687595 -0.000150419907873 0)
(0.780100650147 -0.000206704847608 0)
(0.780099226513 -0.000260549031838 0)
(0.780097366362 -0.000311869498592 0)
(0.780095026445 -0.000360547495166 0)
(0.780092161287 -0.000406463420423 0)
(0.780088729538 -0.000449492780212 0)
(0.780084696513 -0.000489510603127 0)
(0.780080036288 -0.000526396048161 0)
(0.780074733328 -0.00056003693429 0)
(0.780068783555 -0.000590334214888 0)
(0.780062194916 -0.000617206059994 0)
(0.780054987455 -0.000640591386637 0)
(0.780047192951 -0.000660452686118 0)
(0.780038854132 -0.000676778082957 0)
(0.780030023564 -0.000689582562195 0)
(0.780020762232 -0.00069890838399 0)
(0.780011137932 -0.000704824698309 0)
(0.780001223506 -0.000707426440737 0)
(0.779991095039 -0.000706832579625 0)
(0.779980830047 -0.000703183836411 0)
(0.779970505765 -0.000696639979599 0)
(0.779960197544 -0.0006873768256 0)
(0.779949977452 -0.000675583055757 0)
(0.779939913055 -0.00066145697178 0)
(0.779930066458 -0.00064520328534 0)
(0.779920493543 -0.000627030031852 0)
(0.779911243483 -0.000607145686613 0)
(0.77990235843 -0.000585756530334 0)
(0.779893873451 -0.000563064319072 0)
(0.779885816594 -0.000539264263924 0)
(0.779878209147 -0.00051454335106 0)
(0.779871065982 -0.000489078986709 0)
(0.779864396025 -0.000463037961903 0)
(0.779858202762 -0.000436575719542 0)
(0.77985248482 -0.000409835881349 0)
(0.779847236537 -0.000382950042364 0)
(0.77984244856 -0.000356037750688 0)
(0.779838108411 -0.000329206697263 0)
(0.77983420105 -0.000302553019201 0)
(0.779830709374 -0.000276161764188 0)
(0.779827614724 -0.000250107467309 0)
(0.77982489727 -0.000224454636894 0)
(0.779822536346 -0.000199257345737 0)
(0.77982051118 -0.00017456308925 0)
(0.779818801622 -0.000150433539458 0)
(0.779817376971 -0.000126889725595 0)
(0.779816162056 -0.000102939090449 0)
(0.780166317018 -3.9340854807e-05 0)
(0.780165632065 -0.000116538419429 0)
(0.780164596571 -0.000190906990204 0)
(0.78016299541 -0.000262429182187 0)
(0.780160787001 -0.000330929913483 0)
(0.780157891101 -0.000396316813975 0)
(0.780154234626 -0.000458444972841 0)
(0.780149740404 -0.000517168786399 0)
(0.78014433817 -0.000572331479178 0)
(0.780137967922 -0.000623772767343 0)
(0.780130583522 -0.000671334481812 0)
(0.780122155394 -0.000714866483902 0)
(0.780112672352 -0.000754232606669 0)
(0.780102142643 -0.000789316141472 0)
(0.780090594227 -0.000820024696426 0)
(0.78007807433 -0.000846294226596 0)
(0.780064648342 -0.000868092134359 0)
(0.780050398143 -0.0008854193463 0)
(0.780035419929 -0.000898311364729 0)
(0.780019821693 -0.000906838291867 0)
(0.780003720427 -0.000911103906224 0)
(0.779987239213 -0.000911243863896 0)
(0.779970504282 -0.000907423161261 0)
(0.779953642182 -0.000899832977796 0)
(0.779936777115 -0.000888687062355 0)
(0.779920028561 -0.000874217799825 0)
(0.779903509196 -0.000856672116582 0)
(0.779887323201 -0.00083630735165 0)
(0.77987156492 -0.000813387223019 0)
(0.779856317927 -0.00078817799247 0)
(0.779841654426 -0.000760944910762 0)
(0.779827635024 -0.000731949012924 0)
(0.779814308775 -0.000701444300732 0)
(0.779801713508 -0.000669675344581 0)
(0.779789876351 -0.000636875308659 0)
(0.779778814436 -0.000603264388828 0)
(0.779768535725 -0.000569048658384 0)
(0.779759039914 -0.000534419268461 0)
(0.779750319388 -0.000499552006342 0)
(0.779742360187 -0.000464607124245 0)
(0.779735142953 -0.000429729455781 0)
(0.779728643856 -0.000395048712767 0)
(0.779722835442 -0.000360679975465 0)
(0.779717687459 -0.00032672439623 0)
(0.779713167584 -0.000293270171682 0)
(0.779709241882 -0.000260391394076 0)
(0.779705875413 -0.000228147862514 0)
(0.779703034919 -0.000196628476531 0)
(0.779700677058 -0.00016598213492 0)
(0.779698646505 -0.000134095867681 0)
(0.780241534021 -4.74567381171e-05 0)
(0.780240622429 -0.000140617769983 0)
(0.780239208709 -0.000230431083883 0)
(0.780237021636 -0.000316884855416 0)
(0.780233986978 -0.000399801262218 0)
(0.780229987506 -0.000479085665431 0)
(0.780224911349 -0.000554573701743 0)
(0.780218640606 -0.00062609874928 0)
(0.780211067221 -0.000693474019127 0)
(0.780202097125 -0.000756504626086 0)
(0.780191655829 -0.000814993679978 0)
(0.7801796924 -0.000868749751777 0)
(0.780166182294 -0.000917594331456 0)
(0.78015112911 -0.000961368826885 0)
(0.780134565254 -0.000999940916425 0)
(0.780116551572 -0.00103321000192 0)
(0.780097176027 -0.00106111161586 0)
(0.780076551519 -0.00108362065472 0)
(0.780054812961 -0.00110075339882 0)
(0.780032113776 -0.00111256829317 0)
(0.780008621958 -0.00111916554642 0)
(0.779984515888 -0.00112068561424 0)
(0.779959980051 -0.00111730669936 0)
(0.77993520084 -0.00110924140014 0)
(0.779910362565 -0.00109673268523 0)
(0.77988564381 -0.00108004936073 0)
(0.779861214218 -0.00105948121565 0)
(0.779837231792 -0.00103533401273 0)
(0.77981384072 -0.00100792448738 0)
(0.779791169772 -0.000977575499137 0)
(0.779769331231 -0.000944611450176 0)
(0.779748420347 -0.000909354076291 0)
(0.779728515241 -0.00087211867237 0)
(0.779709677238 -0.000833210810293 0)
(0.779691951526 -0.00079292356681 0)
(0.779675368108 -0.000751535268477 0)
(0.779659942941 -0.000709307747853 0)
(0.779645679253 -0.000666485069953 0)
(0.779632568914 -0.000623292716559 0)
(0.779620593876 -0.000579937153136 0)
(0.779609727587 -0.000536605769356 0)
(0.779599936377 -0.000493467104352 0)
(0.779591180759 -0.000450671300151 0)
(0.779583416665 -0.000408350774197 0)
(0.779576596634 -0.00036662175824 0)
(0.779570670639 -0.000325583718082 0)
(0.779565586212 -0.000285311235362 0)
(0.779561292034 -0.000245906680018 0)
(0.779557733395 -0.000207768459665 0)
(0.779554649452 -0.000167168334222 0)
(0.780327448339 -5.53671850883e-05 0)
(0.780326322918 -0.00016409989356 0)
(0.780324551987 -0.000269007921057 0)
(0.780321802951 -0.000370098179333 0)
(0.780317961096 -0.00046720395466 0)
(0.78031286418 -0.000560236583883 0)
(0.78030635202 -0.000649020246971 0)
(0.780298256363 -0.000733373040439 0)
(0.780288421502 -0.000813081447836 0)
(0.780276709316 -0.000887917587437 0)
(0.780263007296 -0.000957645158893 0)
(0.780247233964 -0.00102202865625 0)
(0.780229343003 -0.00108084231301 0)
(0.780209325985 -0.00113387867594 0)
(0.780187213663 -0.00118095658592 0)
(0.780163075932 -0.00122192824295 0)
(0.780137020466 -0.00125668517653 0)
(0.780109190191 -0.00128516294451 0)
(0.780079759696 -0.00130734447714 0)
(0.78004893079 -0.00132326199796 0)
(0.780016927378 -0.0013329975454 0)
(0.779983989906 -0.00133668213131 0)
(0.77995036957 -0.0013344936531 0)
(0.779916322541 -0.00132665368255 0)
(0.77988210437 -0.00131342331787 0)
(0.779847964803 -0.00129509827649 0)
(0.779814143096 -0.00127200344363 0)
(0.779780864 -0.00124448707336 0)
(0.779748334431 -0.00121291484935 0)
(0.77971674092 -0.00117766398583 0)
(0.779686247793 -0.00113911753192 0)
(0.779656996098 -0.00109765902033 0)
(0.779629103181 -0.00105366756903 0)
(0.779602662894 -0.0010075135188 0)
(0.779577746286 -0.000959554658815 0)
(0.779554402762 -0.000910133062507 0)
(0.779532661535 -0.000859572549628 0)
(0.779512533363 -0.000808176737278 0)
(0.779494012414 -0.00075622767199 0)
(0.779477078245 -0.000703984965259 0)
(0.779461697781 -0.000651685417287 0)
(0.779447827284 -0.000599543045756 0)
(0.779435414215 -0.000547749444114 0)
(0.779424398994 -0.000496474245435 0)
(0.779414716717 -0.000445866877762 0)
(0.779406298664 -0.00039605817874 0)
(0.779399071968 -0.000347144368302 0)
(0.779392961675 -0.000299216805484 0)
(0.779387903335 -0.000253072933763 0)
(0.779383503358 -0.000202812148901 0)
(0.780423026586 -6.30688504157e-05 0)
(0.780421716681 -0.000186974307267 0)
(0.780419640152 -0.000306620836853 0)
(0.780416397614 -0.000422048945424 0)
(0.780411826077 -0.00053311707285 0)
(0.780405709887 -0.000639751887836 0)
(0.78039783082 -0.000741775192568 0)
(0.780387960283 -0.000838996451311 0)
(0.780375884363 -0.000931179940063 0)
(0.780361409961 -0.00101806755684 0)
(0.780344375578 -0.00109938400761 0)
(0.780324658321 -0.00117484796825 0)
(0.78030217964 -0.00124418235404 0)
(0.780276909299 -0.00130712449409 0)
(0.780248867628 -0.00136343579747 0)
(0.780218126083 -0.00141291056885 0)
(0.780184806152 -0.00145538375317 0)
(0.780149076728 -0.00149073738668 0)
(0.780111150061 -0.00151890561469 0)
(0.780071276511 -0.00153987815717 0)
(0.78002973832 -0.00155370218994 0)
(0.779986842675 -0.00156048263482 0)
(0.77994291432 -0.001560380933 0)
(0.779898288037 -0.00155361240403 0)
(0.779853301226 -0.00154044235683 0)
(0.779808286866 -0.00152118113708 0)
(0.779763567044 -0.00149617833274 0)
(0.779719447249 -0.00146581636823 0)
(0.779676211528 -0.00143050372296 0)
(0.779634118608 -0.00139066800545 0)
(0.779593398995 -0.00134674908859 0)
(0.779554253048 -0.001299192504 0)
(0.779516849977 -0.00124844324693 0)
(0.779481327685 -0.00119494012645 0)
(0.779447793356 -0.0011391107476 0)
(0.779416324679 -0.00108136718902 0)
(0.779386971574 -0.00102210240905 0)
(0.779359758325 -0.000961687372069 0)
(0.779334685973 -0.000900468887247 0)
(0.779311734891 -0.000838768100246 0)
(0.779290867421 -0.000776879600724 0)
(0.779272030522 -0.000715071081857 0)
(0.779255158335 -0.000653583506532 0)
(0.779240174587 -0.000592631296064 0)
(0.779226994904 -0.000532403650884 0)
(0.779215529204 -0.000473069330578 0)
(0.779205681447 -0.000414758168602 0)
(0.77919734667 -0.000357516319457 0)
(0.779190452799 -0.000302719771181 0)
(0.779184442894 -0.000241675129795 0)
(0.780527141803 -7.05525623468e-05 0)
(0.78052569237 -0.000209213669495 0)
(0.780523391235 -0.000343225296471 0)
(0.780519766765 -0.000472676777114 0)
(0.780514599993 -0.000597465878031 0)
(0.780507613477 -0.000717544918595 0)
(0.780498521407 -0.00083274334801 0)
(0.780487024841 -0.000942869659604 0)
(0.780472840809 -0.00104767181629 0)
(0.780455709738 -0.00114686566505 0)
(0.780435409208 -0.00124013882549 0)
(0.780411762644 -0.00132716391123 0)
(0.78038464696 -0.00140760986852 0)
(0.780353998066 -0.00148115368899 0)
(0.780319814399 -0.00154749173725 0)
(0.780282158468 -0.00160635036176 0)
(0.780241156383 -0.00165749555449 0)
(0.780196995489 -0.00170074137899 0)
(0.780149920183 -0.00173595697643 0)
(0.780100226147 -0.00176307196533 0)
(0.7800482532 -0.00178208013712 0)
(0.779994377106 -0.00179304137341 0)
(0.779939000616 -0.00179608180335 0)
(0.779882544131 -0.00179139224827 0)
(0.779825436282 -0.00177922508682 0)
(0.779768104796 -0.00175988969776 0)
(0.779710967902 -0.00173374670477 0)
(0.779654426556 -0.00170120125695 0)
(0.779598857652 -0.001662695615 0)
(0.779544608393 -0.00161870130603 0)
(0.779491991862 -0.00156971111348 0)
(0.779441283847 -0.00151623114605 0)
(0.779392720864 -0.00145877320601 0)
(0.779346499338 -0.0013978476411 0)
(0.779302775797 -0.00133395683342 0)
(0.779261667981 -0.00126758942797 0)
(0.77922325669 -0.00119921538277 0)
(0.779187588245 -0.00112928185837 0)
(0.779154677381 -0.00105820996942 0)
(0.779124510451 -0.0009863923497 0)
(0.779097048792 -0.000914191496739 0)
(0.779072232153 -0.000841938818281 0)
(0.779049982086 -0.000769934433612 0)
(0.779030205164 -0.000698447090585 0)
(0.779012795979 -0.000627714378335 0)
(0.778997640523 -0.000557950217987 0)
(0.778984616998 -0.000489335702075 0)
(0.778973583332 -0.000421827489194 0)
(0.778964462948 -0.00035759111584 0)
(0.778956501008 -0.00028445261781 0)
(0.780638711342 -7.78049360541e-05 0)
(0.780637180787 -0.000230777973961 0)
(0.780634762219 -0.000378755107714 0)
(0.780630906307 -0.000521889559398 0)
(0.780625330585 -0.000660132540934 0)
(0.780617687771 -0.000793472995735 0)
(0.7806076154 -0.000921758803422 0)
(0.780594734504 -0.00104480617441 0)
(0.780578682316 -0.00116235407183 0)
(0.780559121143 -0.0012740980333 0)
(0.780535755144 -0.00137969228265 0)
(0.780508340795 -0.00147876503785 0)
(0.780476696678 -0.00157093053615 0)
(0.780440710791 -0.00165580216841 0)
(0.78040034571 -0.00173300530215 0)
(0.780355641504 -0.00180218963869 0)
(0.780306716342 -0.00186304081254 0)
(0.780253764825 -0.00191529093018 0)
(0.780197054119 -0.00195872779911 0)
(0.780136918069 -0.00199320260129 0)
(0.780073749494 -0.00201863583412 0)
(0.780007991003 -0.00203502136781 0)
(0.779940124639 -0.00204242855151 0)
(0.779870660782 -0.0020410023433 0)
(0.779800126678 -0.00203096152653 0)
(0.779729055025 -0.00201259512721 0)
(0.779657972981 -0.00198625721614 0)
(0.779587391942 -0.00195236032479 0)
(0.779517798369 -0.00191136774536 0)
(0.779449645897 -0.00186378501692 0)
(0.779383348867 -0.00181015089858 0)
(0.779319277376 -0.00175102813851 0)
(0.779257753847 -0.00168699431876 0)
(0.779199051073 -0.00161863304216 0)
(0.779143391647 -0.00154652567555 0)
(0.779090948622 -0.00147124382652 0)
(0.779041847244 -0.00139334268794 0)
(0.778996167569 -0.00131335533229 0)
(0.778953947767 -0.0012317880042 0)
(0.778915187931 -0.00114911640501 0)
(0.77887985421 -0.00106578294271 0)
(0.778847883104 -0.000982194858066 0)
(0.778819185797 -0.000898723358405 0)
(0.778793652392 -0.000815703263632 0)
(0.778771155717 -0.000733431646376 0)
(0.778751555677 -0.000652175630507 0)
(0.778734702584 -0.000572191570171 0)
(0.778720409473 -0.000493291739222 0)
(0.778708599655 -0.000418675846578 0)
(0.778698280435 -0.000331922828149 0)
(0.780756741886 -8.48099252501e-05 0)
(0.780755199823 -0.000251618971784 0)
(0.780752793022 -0.000413129547373 0)
(0.78074888922 -0.00056957337109 0)
(0.780743135357 -0.000720968901355 0)
(0.780735106897 -0.000867353009992 0)
(0.780724356442 -0.00100860334113 0)
(0.780710416009 -0.00114455344514 0)
(0.780692832845 -0.00127494198944 0)
(0.780671179787 -0.00139945159044 0)
(0.780645075008 -0.00151770875535 0)
(0.780614194251 -0.0016293011773 0)
(0.780578282969 -0.00173379000241 0)
(0.780537165612 -0.00183072414979 0)
(0.780490752771 -0.00191965436393 0)
(0.780439045866 -0.00200014711925 0)
(0.780382139285 -0.00207179806343 0)
(0.780320219956 -0.00213424465998 0)
(0.780253564333 -0.0021871777606 0)
(0.780182532934 -0.00223035179226 0)
(0.780107562592 -0.00226359331091 0)
(0.780029156719 -0.00228680767706 0)
(0.779947873904 -0.0022999836893 0)
(0.779864315291 -0.00230319604817 0)
(0.779779111151 -0.00229660562098 0)
(0.779692907158 -0.0022804575339 0)
(0.779606350798 -0.00225507721327 0)
(0.779520078397 -0.00222086455419 0)
(0.779434703114 -0.00217828647376 0)
(0.779350804276 -0.00212786814715 0)
(0.779268918273 -0.00207018326429 0)
(0.779189531213 -0.00200584365833 0)
(0.7791130734 -0.00193548866186 0)
(0.779039915667 -0.00185977452767 0)
(0.778970367473 -0.00177936422135 0)
(0.778904676658 -0.00169491784311 0)
(0.778843030659 -0.00160708390257 0)
(0.778785558996 -0.00151649159574 0)
(0.778732336783 -0.00142374420038 0)
(0.77868338904 -0.00132941362966 0)
(0.778638695561 -0.00123403616992 0)
(0.778598196134 -0.00113810928428 0)
(0.778561795919 -0.00104208964946 0)
(0.778529370861 -0.000946392406783 0)
(0.77850077255 -0.000851388215624 0)
(0.778475833318 -0.000757406470881 0)
(0.778454374124 -0.000664810063624 0)
(0.778436154626 -0.000573200971369 0)
(0.778421104008 -0.000487095724817 0)
(0.778407944283 -0.000384964624908 0)
(0.780880300587 -9.15500834199e-05 0)
(0.780878825667 -0.000271684034917 0)
(0.780876577554 -0.000446259927728 0)
(0.78087283626 -0.000615601761418 0)
(0.780867171772 -0.000779808454209 0)
(0.780859075835 -0.00093897613072 0)
(0.780848008928 -0.00109302384748 0)
(0.78083340615 -0.00124181290065 0)
(0.780814715553 -0.00138509162235 0)
(0.780791409948 -0.00152253872781 0)
(0.780763009428 -0.00165376074509 0)
(0.780729095309 -0.00177831111493 0)
(0.780689324677 -0.00189570217467 0)
(0.780643441809 -0.00200542036718 0)
(0.780591287546 -0.00210694109544 0)
(0.780532806133 -0.00219974387177 0)
(0.780468049359 -0.00228332732914 0)
(0.780397177926 -0.00235722381538 0)
(0.780320459905 -0.00242101326004 0)
(0.780238266369 -0.00247433597502 0)
(0.780151064242 -0.00251690406197 0)
(0.780059406652 -0.00254851110177 0)
(0.77996392103 -0.00256903984741 0)
(0.779865295418 -0.00257846768207 0)
(0.779764263386 -0.00257686968217 0)
(0.779661588154 -0.00256441920048 0)
(0.779558046385 -0.00254138597618 0)
(0.779454412254 -0.00250813187209 0)
(0.779351442258 -0.00246510442517 0)
(0.779249861264 -0.00241282848431 0)
(0.779150350139 -0.0023518962642 0)
(0.779053535305 -0.00228295620392 0)
(0.778959980381 -0.00220670103496 0)
(0.778870180033 -0.00212385547948 0)
(0.778784556022 -0.00203516397538 0)
(0.778703455381 -0.00194137879673 0)
(0.778627150545 -0.00184324889105 0)
(0.778555841232 -0.00174150969134 0)
(0.778489657801 -0.00163687410257 0)
(0.778428665825 -0.00153002478982 0)
(0.778372871577 -0.00142160786084 0)
(0.778322228144 -0.00131222785231 0)
(0.778276641913 -0.00120244409496 0)
(0.778235979313 -0.00109276922296 0)
(0.778200073013 -0.000983665243176 0)
(0.778168727371 -0.000875534298184 0)
(0.778141733535 -0.000768885466764 0)
(0.778118788626 -0.000663032654661 0)
(0.778099835906 -0.000564136369342 0)
(0.778083255219 -0.00044458369565 0)
(0.78100849409 -9.80076668618e-05 0)
(0.781007171722 -0.000290919496016 0)
(0.781005242575 -0.000478055234376 0)
(0.781001894787 -0.000659843748131 0)
(0.780996615973 -0.000836476749085 0)
(0.780988808889 -0.0010081206614 0)
(0.78097783609 -0.00117474765553 0)
(0.780963029273 -0.0013362577243 0)
(0.78094372949 -0.0014924198884 0)
(0.780919300255 -0.00164291947429 0)
(0.780889152524 -0.00178735278549 0)
(0.780852760185 -0.00192524773116 0)
(0.780809676975 -0.00205607498775 0)
(0.780759550035 -0.00217926370204 0)
(0.780702131719 -0.0022942166331 0)
(0.780637288841 -0.00240032608761 0)
(0.78056500928 -0.0024969900816 0)
(0.780485405642 -0.00258362853374 0)
(0.780398715894 -0.00265969919855 0)
(0.780305300768 -0.00272471297747 0)
(0.780205638059 -0.00277824824903 0)
(0.780100313812 -0.00281996380833 0)
(0.779990010741 -0.00284961004755 0)
(0.779875494106 -0.00286703799995 0)
(0.779757595603 -0.00287220596105 0)
(0.779637195685 -0.0028651834349 0)
(0.779515205001 -0.00284615228095 0)
(0.779392545483 -0.00281540500993 0)
(0.779270131791 -0.00277334031789 0)
(0.779148853632 -0.00272045603127 0)
(0.779029559562 -0.00265733975885 0)
(0.778913042665 -0.00258465761515 0)
(0.778800028525 -0.00250314146248 0)
(0.778691165664 -0.00241357514104 0)
(0.778587018634 -0.00231678018861 0)
(0.778488063706 -0.00221360152053 0)
(0.778394687115 -0.0021048935296 0)
(0.778307185615 -0.00199150698311 0)
(0.778225769124 -0.00187427705312 0)
(0.778150565106 -0.00175401270671 0)
(0.778081624404 -0.00163148767492 0)
(0.778018928095 -0.00150743298751 0)
(0.777962395066 -0.00138253096574 0)
(0.777911890156 -0.00125741226651 0)
(0.777867232069 -0.00113265239908 0)
(0.777828198522 -0.0010087386137 0)
(0.777794551974 -0.000886375581769 0)
(0.777765917276 -0.000764498143928 0)
(0.777742263038 -0.000651290217774 0)
(0.777721558744 -0.000511948437258 0)
(0.781140469653 -0.000104165607522 0)
(0.781139389673 -0.000309273553215 0)
(0.78113794872 -0.000508426987402 0)
(0.781135239696 -0.000702170722286 0)
(0.781130663528 -0.00089080046741 0)
(0.781123530091 -0.00107456340593 0)
(0.781113099811 -0.00125349628677 0)
(0.781098596205 -0.00142754902335 0)
(0.781079247289 -0.00159652312086 0)
(0.781054299731 -0.00176012230327 0)
(0.78102304588 -0.00191794423898 0)
(0.780984840523 -0.00206950239413 0)
(0.780939120003 -0.00221423582481 0)
(0.780885417812 -0.00235152493149 0)
(0.780823378867 -0.00248070628872 0)
(0.780752771362 -0.00260108879408 0)
(0.780673496111 -0.00271197040271 0)
(0.780585593057 -0.00281265538732 0)
(0.780489244615 -0.00290247188774 0)
(0.780384775712 -0.0029807894036 0)
(0.7802726503 -0.00304703587516 0)
(0.780153464424 -0.00310071389495 0)
(0.780027935828 -0.00314141560107 0)
(0.779896890451 -0.00316883576737 0)
(0.779761246053 -0.0031827826459 0)
(0.779621993552 -0.00318318615264 0)
(0.779480176558 -0.00317010307657 0)
(0.779336869868 -0.00314371908906 0)
(0.779193157516 -0.00310434745736 0)
(0.779050111228 -0.0030524244977 0)
(0.778908769843 -0.00298850194008 0)
(0.778770120491 -0.00291323650948 0)
(0.778635081916 -0.00282737713563 0)
(0.778504490538 -0.00273175029741 0)
(0.7783790894 -0.00262724406212 0)
(0.778259520301 -0.00251479141249 0)
(0.778146318987 -0.00239535344309 0)
(0.778039913437 -0.00226990297356 0)
(0.777940624861 -0.00213940906527 0)
(0.777848671256 -0.00200482283338 0)
(0.777764172973 -0.00186706490891 0)
(0.777687160055 -0.001727014744 0)
(0.77761758067 -0.0015855013865 0)
(0.777555310665 -0.00144329784613 0)
(0.777500163543 -0.00130112047613 0)
(0.777451894432 -0.00115955645481 0)
(0.777410240632 -0.00101956696355 0)
(0.777374744718 -0.000879601942002 0)
(0.777345415974 -0.000750309352443 0)
(0.777319731989 -0.000588433531184 0)
(0.781275420775 -0.000110008331908 0)
(0.78127467517 -0.000326698708607 0)
(0.781273896257 -0.000537293343241 0)
(0.781272079235 -0.000742462358411 0)
(0.78126853522 -0.000942615287239 0)
(0.781262478811 -0.0011380896646 0)
(0.781253065834 -0.00132899775113 0)
(0.781239408767 -0.00151535055003 0)
(0.781220618598 -0.00169699429602 0)
(0.781195819711 -0.00187366383769 0)
(0.781164178429 -0.00204497134717 0)
(0.781124920694 -0.00221042907062 0)
(0.781077353072 -0.00236945724011 0)
(0.78102088013 -0.002521399435 0)
(0.780955021089 -0.00266553642534 0)
(0.780879424274 -0.00280110191238 0)
(0.780793879402 -0.00292729910078 0)
(0.780698327239 -0.0030433183373 0)
(0.780592866246 -0.00314835559544 0)
(0.780477755899 -0.00324163157832 0)
(0.780353416374 -0.00332241109161 0)
(0.780220424443 -0.00339002226412 0)
(0.780079505489 -0.0034438751063 0)
(0.779931521711 -0.00348347885473 0)
(0.779777456725 -0.00350845751845 0)
(0.779618396931 -0.00351856305753 0)
(0.779455510138 -0.00351368566315 0)
(0.779290022089 -0.00349386070266 0)
(0.779123191627 -0.00345927199121 0)
(0.778956285319 -0.00341025122 0)
(0.778790552359 -0.00334727350244 0)
(0.778627200614 -0.00327094920671 0)
(0.778467374552 -0.00318201236536 0)
(0.778312135745 -0.00308130614687 0)
(0.778162446482 -0.0029697659465 0)
(0.77801915688 -0.00284840078886 0)
(0.777882995687 -0.00271827372853 0)
(0.777754564853 -0.00258048198921 0)
(0.777634337709 -0.00243613749817 0)
(0.777522660521 -0.00228634843185 0)
(0.777419757013 -0.00213220228674 0)
(0.777325735452 -0.00197475101123 0)
(0.777240597625 -0.00181499759734 0)
(0.777164249445 -0.00165388590849 0)
(0.777096513514 -0.00149230651803 0)
(0.777037130451 -0.00133096445317 0)
(0.776985819648 -0.0011711519728 0)
(0.776942031576 -0.00101071169601 0)
(0.776905836944 -0.000863267666225 0)
(0.776874124165 -0.000675670149712 0)
(0.781412589084 -0.00011552239316 0)
(0.781412269873 -0.000343153692675 0)
(0.781412327376 -0.000564582400701 0)
(0.781411657563 -0.0007806114332 0)
(0.781409479878 -0.000991772410403 0)
(0.781404912779 -0.00119850168426 0)
(0.781397006834 -0.00140099713858 0)
(0.78138476265 -0.00159934165741 0)
(0.781367172432 -0.0017934385077 0)
(0.781343235219 -0.00198306695208 0)
(0.781311986362 -0.00216786795196 0)
(0.781272515668 -0.00234736752123 0)
(0.781223989857 -0.00252098232947 0)
(0.781165671349 -0.00268803421969 0)
(0.781096937016 -0.0028477624333 0)
(0.781017295055 -0.00299933823879 0)
(0.780926400212 -0.00314188055834 0)
(0.780824066749 -0.00327447312468 0)
(0.780710278747 -0.00339618305125 0)
(0.780585197305 -0.00350608069277 0)
(0.78044916419 -0.00360326057508 0)
(0.780302701609 -0.00368686300536 0)
(0.780146507813 -0.00375609590526 0)
(0.7799814484 -0.00381025626558 0)
(0.779808543304 -0.00384875056904 0)
(0.779628949655 -0.0038711134636 0)
(0.779443940822 -0.00387702396511 0)
(0.779254882193 -0.00386631850822 0)
(0.779063204343 -0.00383900023857 0)
(0.77887037445 -0.00379524408234 0)
(0.778677866859 -0.00373539728146 0)
(0.778487133818 -0.00365997529528 0)
(0.778299577346 -0.0035696531647 0)
(0.778116523208 -0.00346525266169 0)
(0.777939197828 -0.00334772572917 0)