/*--------------------------------*- C++ -*----------------------------------*\
  =========                 |
  \\      /  F ield         | OpenFOAM: The Open Source CFD Toolbox
   \\    /   O peration     | Website:  https://openfoam.org
    \\  /    A nd           | Version:  7
     \\/     M anipulation  |
\*---------------------------------------------------------------------------*/
FoamFile
{
    version     2.0;
    format      ascii;
    class       volScalarField;
    location    "425";
    object      p;
}
// * * * * * * * * * * * * * * * * * * * * * * * * * * * * * * * * * * * * * //

dimensions      [0 2 -2 0 0 0 0];

internalField   nonuniform List<scalar> 
34121
(
0.00424050154661
0.00425443423992
0.00428083293683
0.00431842331031
0.00436595642576
0.00442224539631
0.00448616356195
0.00455664143549
0.00463266489032
0.00471327387171
0.00479756171778
0.00488467504094
0.00497381403135
0.00506423303627
0.00515524124318
0.00524620332637
0.00533653990511
0.00542572771983
0.00551329941936
0.00559884292832
0.00568200033796
0.00576246634989
0.00583998625752
0.00591435354225
0.00598540709689
0.00605302818265
0.00611713714275
0.00617768999143
0.00623467489813
0.00628810868381
0.00633803333531
0.00638451264479
0.00642762896192
0.00646748015031
0.00650417671783
0.00653783919687
0.00656859572729
0.00659657990716
0.00662192884674
0.00664478148703
0.00666527710345
0.00668355405705
0.00669974869985
0.00671399450206
0.00672642129818
0.00673715473488
0.00674631582513
0.00675402051366
0.00676037868725
0.00676549598957
0.00422948840216
0.00424343265925
0.0042698998829
0.00430760971014
0.00435530444067
0.00441180316445
0.00447598404116
0.00454678212607
0.00462318746446
0.00470424341331
0.00478904573554
0.00487674232198
0.00496653338611
0.00505767199912
0.00514946477418
0.00524127257197
0.00533251105135
0.00542265098444
0.00551121820035
0.00559779314033
0.00568200993694
0.00576355506033
0.00584216548655
0.00591762648032
0.0059897689778
0.00605846669204
0.00612363294135
0.00618521733697
0.00624320233218
0.00629759976622
0.00634844739747
0.00639580554492
0.00643975382294
0.00648038806619
0.00651781741691
0.00655216165243
0.00658354871169
0.00661211248343
0.00663799079811
0.00666132368468
0.00668225181385
0.00670091519347
0.00671745201962
0.00673199775992
0.00674468434922
0.00675563956527
0.00676498659921
0.00677284435997
0.00677932648278
0.00678452992034
0.00420330830125
0.00421733330598
0.00424397715441
0.00428195970441
0.00433002770109
0.00438701346751
0.00445180561459
0.00452335029764
0.00460064771437
0.00468274961962
0.00476875790593
0.00485782392605
0.00494914841861
0.00504198192181
0.00513562544887
0.00522943131149
0.00532280387976
0.00541520020277
0.00550613032005
0.00559515724147
0.00568189647596
0.00576601514204
0.00584723059114
0.0059253086236
0.00600006126666
0.00607134422685
0.00613905401249
0.00620312485476
0.0062635254326
0.00632025552996
0.00637334263262
0.00642283857877
0.00646881626483
0.00651136649916
0.00655059499583
0.00658661958116
0.00661956758891
0.0066495735036
0.00667677680819
0.00670132009498
0.00672334736874
0.00674300260881
0.00676042849595
0.00677576538698
0.00678915042962
0.00680071681759
0.00681059291585
0.00681890297873
0.00682577306402
0.00683131722761
0.00416383559535
0.00417798737511
0.00420488840665
0.00424326153282
0.00429186731806
0.00434955697753
0.0044152357344
0.00448786766844
0.00456646919367
0.00465010575398
0.00473788962405
0.00482897856433
0.0049225753501
0.00501792792903
0.00511433007801
0.00521112232324
0.00530769301183
0.00540347931915
0.005497968121
0.00559069655453
0.00568125224799
0.00576927309409
0.00585444660076
0.00593650874151
0.00601524238536
0.00609047526973
0.0061620776307
0.0062299594788
0.00629406765338
0.00635438265596
0.00641091540017
0.00646370387645
0.00651280985932
0.00655831564853
0.00660032095601
0.00663893991303
0.00667429829302
0.00670653090801
0.00673577926202
0.00676218939531
0.00678590999958
0.00680709071852
0.00682588071088
0.00684242737187
0.00685687533905
0.00686936565369
0.00688003437032
0.00688901130257
0.00689643440744
0.00690246943929
0.00411405025534
0.00412834543969
0.00415554010425
0.00419436346269
0.0042435949029
0.0043021089919
0.00436883393581
0.00444275840832
0.00452292115081
0.0046084070642
0.00469834384129
0.00479189980092
0.00488828281095
0.00498674010672
0.00508655877982
0.00518706679991
0.00528763432915
0.00538767521133
0.00548664841695
0.00558405936241
0.00567946092371
0.00577245411151
0.00586268827616
0.00594986086237
0.00603371663276
0.00611404642957
0.00619068543589
0.00626351104423
0.0063324403243
0.00639742722134
0.00645845948991
0.00651555550314
0.00656876094154
0.00661814549794
0.00666379958903
0.00670583119888
0.00674436282562
0.00677952864358
0.00681147182906
0.00684034214851
0.00686629373809
0.00688948316432
0.00691006767668
0.00692820371686
0.00694404562096
0.00695774483743
0.00696944854205
0.00697929494442
0.00698743018351
0.00699411236027
0.00405533352958
0.00406977463026
0.00409726923259
0.00413655805426
0.00418644476208
0.00424583262311
0.00431367974082
0.00438900635848
0.00447088037857
0.00455841291678
0.00465075338748
0.00474708632118
0.00484662953535
0.00494863338756
0.00505238100283
0.00515718922154
0.00526241013318
0.00536743294451
0.00547168606205
0.0055746391538
0.00567580510095
0.00577474164007
0.00587105265183
0.00596438894588
0.00605444855222
0.00614097642305
0.00622376360905
0.00630264586335
0.00637750178212
0.00644825047073
0.00651484887348
0.0065772887752
0.00663559362448
0.00668981518886
0.00674003018872
0.00678633690914
0.006828851924
0.00686770691177
0.00690304568045
0.00693502135846
0.00696379385249
0.00698952750759
0.00701238906365
0.00703254580197
0.00705016391051
0.00706540742821
0.00707843758586
0.007089404862
0.00709845666081
0.00710598777634
0.00398828519678
0.00400286363426
0.00403064152483
0.0040703767189
0.00412090329625
0.00418115956104
0.00425014099255
0.0043269069207
0.00441056210542
0.00450025169595
0.00459515437746
0.00469447807863
0.00479745711831
0.00490335073778
0.00501144281152
0.00512104260112
0.00523148629338
0.00534213919632
0.00545239832275
0.00556169523879
0.00566949891774
0.00577531849957
0.00587870572751
0.00597925700515
0.00607661489647
0.00617046907015
0.00626055656988
0.00634666147294
0.00642861387691
0.00650628832998
0.00657960168843
0.00664851055303
0.00671300829323
0.0067731218282
0.00682890817781
0.00688045095148
0.0069278567771
0.00697125182451
0.007010778405
0.00704659177976
0.00707885713554
0.00710774683683
0.00713343790136
0.00715610979326
0.00717594229359
0.00719311391061
0.00720780206084
0.00722017425119
0.00723036980291
0.00723897233271
0.00391364275636
0.00392833691108
0.00395635792018
0.00399648633189
0.00404759267624
0.00410865692476
0.00417871957776
0.00425688690495
0.00434230880848
0.00443417304599
0.00453169617432
0.00463411801531
0.00474069757664
0.00485071058257
0.00496344849272
0.00507821875547
0.00519434619842
0.00531117528374
0.00542807310863
0.00554443286003
0.00565967759451
0.00577326405201
0.00588468638915
0.00599347956792
0.00609922232792
0.00620153952888
0.00630010385558
0.0063946367391
0.00648490855805
0.00657073803969
0.00665199098949
0.00672857832366
0.00680045357846
0.00686760990254
0.00693007672846
0.00698791613977
0.00704121912891
0.00709010175197
0.00713470135935
0.00717517288753
0.00721168536608
0.00724441859306
0.00727356011251
0.00729930247281
0.00732184067481
0.0073413696713
0.00735808508071
0.00737217752895
0.00738376643209
0.00739368579952
0.00383231381406
0.00384708947491
0.00387529003127
0.00391572428717
0.00396730515081
0.00402906081038
0.00410008428225
0.00417953663646
0.00426662143585
0.00436057807149
0.00446067032307
0.00456617952777
0.00467639899285
0.00479063036044
0.00490818159529
0.00502836652951
0.00515050573401
0.00527392863627
0.00539797660276
0.00552200687334
0.00564539703039
0.00576754986436
0.00588789830736
0.00600591030207
0.00612109329781
0.00623299828217
0.00634122309458
0.00644541500166
0.00654527235472
0.00664054539306
0.00673103609303
0.00681659720548
0.00689713044568
0.00697258403611
0.00704294960752
0.00710825868859
0.00716857880183
0.00722400939817
0.00727467763884
0.00732073423808
0.00736234935222
0.00739970869444
0.00743300981877
0.0074624588042
0.00748826715706
0.00751064832714
0.00752981779594
0.00754599680067
0.00755926961201
0.00757079181239
0.00374516345194
0.00375997583998
0.00378827161023
0.00382889338736
0.00388080230958
0.00394308108843
0.00401488236493
0.00409542961533
0.00418398849097
0.0042798591661
0.00438236245886
0.00449083162847
0.00460460511368
0.00472302146989
0.00484541612105
0.00497111979442
0.00509945862113
0.00522975566739
0.00536133384681
0.00549351992103
0.00562564948092
0.00575707256371
0.0058871597548
0.00601530840272
0.00614094878886
0.00626354989584
0.00638262465644
0.0064977343825
0.00660849233322
0.00671456620927
0.00681567963135
0.00691161248241
0.00700220026557
0.00708733243909
0.0071669499527
0.0072410419976
0.00730964223104
0.00737282450844
0.00743069838957
0.00748340443932
0.00753110957047
0.00757400242288
0.00761228896095
0.0076461883208
0.00767592919026
0.0077017452467
0.00772387289109
0.00774257279677
0.00775787506736
0.00777133913658
0.00365296158162
0.00366775723394
0.00369604659464
0.00373671156368
0.0037887670587
0.00385135612127
0.00392369753181
0.00400508423081
0.00409485196798
0.00419237063026
0.00429702794643
0.00440821993682
0.00452534178651
0.00464778125127
0.00477491383048
0.00490609986651
0.00504068339654
0.00517799279324
0.00531734296659
0.00545803911511
0.00559938171465
0.00574067265266
0.00588122212238
0.00602035611675
0.00615742409641
0.00629180664718
0.00642292270963
0.00655023622943
0.00667326187381
0.00679156974668
0.00690478884725
0.00701260931821
0.00711478334367
0.00721112485518
0.00730150800595
0.00738586465936
0.00746418092072
0.00753649300569
0.00760288250033
0.00766347131313
0.00771841636611
0.00776790431093
0.00781214624434
0.0078513726743
0.00788582911604
0.0079157708095
0.00794145522032
0.00796319287451
0.0079809362658
0.0079967450014
0.0035564275603
0.00357114597807
0.00359931343643
0.00363985624241
0.00369184807145
0.00375449736351
0.00382709468351
0.0039090086601
0.0039996523824
0.0040984737538
0.00420493693463
0.0043185114743
0.00443866129355
0.00456483639739
0.00469646632877
0.00483295554099
0.00497368074102
0.00511799007172
0.00526520424308
0.00541461938482
0.00556551165569
0.00571714327801
0.00586876992237
0.00601964901348
0.00616904878753
0.00631625760933
0.00646059333602
0.00660141223336
0.00673811725795
0.00687016527596
0.00699707312178
0.00711842218535
0.00723386156187
0.00734310959233
0.00744595396204
0.0075422503145
0.00763191965404
0.00771494458319
0.00779136470805
0.00786127129573
0.00792480152569
0.00798213242631
0.00803347478716
0.00807906698802
0.00811916969719
0.00815406029215
0.00818401636941
0.00820941034857
0.00823008831069
0.00824872340046
0.00345625619527
0.00347083160658
0.00349875118303
0.00353899030514
0.00359068563795
0.00365311513191
0.00372564570647
0.00380772677146
0.00389885489232
0.003998563294
0.00410640125973
0.00422192211338
0.00434467028995
0.00447417139982
0.00460992373596
0.00475139178817
0.00489800162123
0.00504913829482
0.00520414526872
0.00536232591345
0.00552294698058
0.00568524404672
0.00584842865361
0.0060116970254
0.00617423994497
0.00633525355858
0.00649395058421
0.00664957163935
0.00680139613145
0.00694875245525
0.00709102699372
0.00722767177416
0.00735821040424
0.00748224229837
0.00759944498285
0.00770957465758
0.00781246495969
0.00790802424307
0.00799623143154
0.00807713083886
0.00815082605873
0.00821747335111
0.0082772746355
0.00833047023638
0.00837733221023
0.00841815953787
0.00845324731087
0.00848304372628
0.00850725277738
0.00852929489126
0.00335311356868
0.00336747676919
0.00339501546066
0.00343475815654
0.00348590789003
0.00354781515616
0.00361992652706
0.00370177594541
0.00379294819805
0.00389306776561
0.00400177652049
0.00411872074094
0.00424353644531
0.00437583783501
0.00451520687481
0.0046611847392
0.00481326504066
0.00497088902272
0.00513344282336
0.00530025695596
0.00547060803282
0.00564372279328
0.00581878432042
0.00599494034564
0.00617131336804
0.00634701229427
0.00652114518993
0.00669283269173
0.00686122159928
0.00702549812447
0.00718490034303
0.00733872936574
0.00748635889986
0.00762724285235
0.00776092084397
0.00788702147384
0.00800526342156
0.00811545440929
0.00821748829624
0.00831134046392
0.00839706187192
0.00847477200461
0.00854465119919
0.00860693220332
0.00866189181303
0.0087098481338
0.00875110880443
0.00878621346335
0.00881467994213
0.00884083371976
0.00324762936598
0.00326170951973
0.00328873070052
0.00332777795738
0.00337812313224
0.00343919111238
0.00351051006159
0.00359170068732
0.00368243912752
0.00378244540394
0.00389145980016
0.00400922923482
0.00413549105291
0.00426996008686
0.00441231634566
0.00456219440726
0.00471917434077
0.00488277438356
0.00505244565693
0.00522756901409
0.00540745435266
0.00559134237036
0.00577840900651
0.00596777237424
0.00615850223881
0.00634963163968
0.0065401704848
0.00672912051681
0.00691549128866
0.00709831641714
0.00727666966356
0.00744968009453
0.00761654591796
0.00777654636319
0.00792905137234
0.00807352868769
0.00820954834675
0.00833678442411
0.00845501428099
0.00856411538476
0.00866406014184
0.00875490892809
0.00883680199307
0.00890995009775
0.0089746238519
0.00903115516992
0.00907985581126
0.00912137432392
0.00915498775479
0.00918611296397
0.00314039536202
0.00315412165391
0.00318048830958
0.00321863958225
0.00326791758279
0.0033278222362
0.0033979638002
0.00347805038329
0.00356785084283
0.00366718312953
0.0037758898378
0.00389382425247
0.0040208329819
0.004156741901
0.00430134218143
0.00445437776945
0.00461553396477
0.00478442751928
0.00496059841256
0.00514350370994
0.005332513687
0.00552691063453
0.00572589041994
0.00592856711626
0.00613398057479
0.00634110703274
0.00654887237496
0.00675616786154
0.00696186767749
0.00716484786569
0.00736400580648
0.00755827966952
0.0077466669472
0.00792824152635
0.00810216852244
0.00826771652938
0.00842426676252
0.00857131905003
0.00870849446533
0.00883553487769
0.00895229950014
0.00905875891281
0.00915498701259
0.00924115133485
0.00931749936986
0.00938436721091
0.0094420573924
0.0094913462859
0.00953120242547
0.00956835418953
0.0030319659996
0.00304526914755
0.00307084680572
0.00310790437316
0.00315585471056
0.00321427221778
0.00328284835133
0.00336137762449
0.00344972114562
0.00354779517736
0.00365554632606
0.00377293772138
0.00389993085676
0.00403647086947
0.0041824712261
0.00433779957045
0.00450226417954
0.00467560146232
0.00485746478209
0.00504741490524
0.00524491256107
0.00544931341438
0.00565986596159
0.00587571255076
0.00609589392505
0.00631935726708
0.00654496788865
0.00677152422859
0.00699777595859
0.00722244451649
0.00744424553673
0.00766191222093
0.00787421891469
0.00808000382372
0.00827819013786
0.00846780460252
0.00864799302658
0.00881803206653
0.00897733714744
0.00912546625958
0.00926211991445
0.00938713729644
0.00950048940221
0.00960226984349
0.00969267767988
0.00977203708657
0.00984062107801
0.00989935340838
0.00994680995042
0.00999129055652
0.0029228578876
0.00293567146369
0.00296033080803
0.00299610366459
0.0030424731871
0.00309908657712
0.00316571423219
0.00324223451218
0.0033285984947
0.00342481904913
0.00353094622609
0.00364705393774
0.0037732215593
0.0039095189752
0.00405599042079
0.00421263913528
0.004379412027
0.00455618489899
0.00474274835389
0.0049387948632
0.00514390736144
0.00535754996411
0.005579061241
0.00580765068132
0.00604239870223
0.006282260727
0.00652607544094
0.00677257745949
0.00702041413758
0.0072681663311
0.00751437239285
0.00775755477777
0.00799624815162
0.00822902807778
0.00845453898087
0.00867152041496
0.00887883042192
0.00907546525144
0.00926057457954
0.00943347195708
0.00959364016158
0.00974073161834
0.00987456413427
0.00999511399922
0.0101024946507
0.0101969929751
0.0102788220894
0.0103490721377
0.010405821216
0.0104592475972
0.00281354867507
0.00282581024055
0.00284942932694
0.00288373653982
0.00292828401831
0.00298278905416
0.00304709752753
0.00312116761616
0.00320503635636
0.00329880952655
0.00340263769635
0.00351670391701
0.00364120551553
0.00377633952649
0.00392228619566
0.00407919302666
0.00424715822078
0.00442621405499
0.00461631032015
0.00481729814264
0.0050289147114
0.00525076938127
0.00548233186708
0.00572292311819
0.00597170966584
0.00622770198607
0.00648975757597
0.00675658903063
0.00702677749221
0.00729879130657
0.00757100973805
0.0078417510029
0.00810930389678
0.00837196173309
0.00862805742801
0.00887599812999
0.00911429810137
0.00934160829334
0.00955674157969
0.00975869249884
0.00994665109105
0.0101200102382
0.0102783665984
0.0104215184461
0.0105494401691
0.0106623423642
0.0107603337511
0.0108446868469
0.0109128502342
0.0109772424277
0.00270447630249
0.00271612831732
0.00273859440772
0.00277126791462
0.00281376789171
0.00286587815666
0.00292751552428
0.00299871269211
0.00307958708698
0.00317033179062
0.00327119277996
0.00338245794312
0.00350443968246
0.00363746121072
0.00378184038864
0.00393787382561
0.00410581974994
0.00428588029207
0.00447818300748
0.00468276206585
0.00489953938214
0.00512830631108
0.00536870647686
0.00562022058761
0.00588215400837
0.00615362808245
0.00643357598514
0.00672074404041
0.00701369903402
0.00731084209769
0.00761042916823
0.0079105979608
0.00820940072117
0.00850484193737
0.00879491951942
0.00907766798879
0.00935120167982
0.00961375623542
0.00986372636442
0.0100996983828
0.0103204760491
0.0105250988974
0.0107128517191
0.0108832713372
0.0110361171899
0.011171465289
0.0112892552044
0.0113909511683
0.0114732059434
0.0115511041379
0.00259603887645
0.00260702940487
0.00262824037341
0.00265912717706
0.0026993730905
0.00274882414794
0.00280746271053
0.00287538959964
0.00295279572248
0.00303995422109
0.00313719927227
0.00324491687758
0.00336352865178
0.00349347962574
0.0036352229895
0.00378920498711
0.00395584804863
0.00413553275703
0.00432857841213
0.00453522232863
0.00475559819696
0.00498971383998
0.00523742904603
0.00549843416052
0.00577223043902
0.00605811314613
0.00635515864199
0.00666221654235
0.00697790820118
0.00730063238454
0.00762857901178
0.00795975122719
0.00829199590985
0.00862304194051
0.00895054533009
0.00927213948108
0.00958548875965
0.00988834286424
0.0101785896991
0.0104543040343
0.0107137899375
0.0109556149133
0.0111786330694
0.0113820064411
0.011565173424
0.0117279895706
0.011870132122
0.0119932535009
0.0120929993807
0.0121876199428
0.00248859496669
0.00249887816657
0.00251874352291
0.00254770731787
0.00258551383307
0.00263206649861
0.00268740713008
0.00275169746717
0.00282519390371
0.00290824097482
0.00300125213024
0.00310470246725
0.00321911425294
0.00334504662164
0.00348308189072
0.00363381197148
0.00379782255251
0.00397567580125
0.00416789090713
0.00437492269879
0.0045971382275
0.00483479169291
0.00508799802807
0.00535670587932
0.00564067076736
0.00593942960311
0.00625227778213
0.00657825041505
0.00691610916165
0.00726433634559
0.00762113768016
0.00798445492348
0.00835198912084
0.00872123483924
0.00908952485406
0.00945408436813
0.00981209277082
0.0101607506721
0.010497349026
0.0108193372225
0.0111243865627
0.0114104464636
0.0116757875425
0.0119190458546
0.0121391921584
0.0123357373113
0.012507962725
0.0126576834053
0.0127792670178
0.0128947125953
0.00238246428628
0.00239200071141
0.00241044223086
0.00243736445285
0.0024725690973
0.00251601175905
0.00256778720473
0.00262811026611
0.00269729404065
0.00277574474197
0.00286394466138
0.00296244714727
0.00307186406828
0.00319285792121
0.00332613018789
0.00347240993726
0.00363243994725
0.00380696102397
0.00399669380211
0.0042023178463
0.00442444797346
0.00466360767742
0.00492019994638
0.00519447576167
0.00548650103878
0.00579612288087
0.00612293650216
0.00646625430941
0.00682507909207
0.00719808326271
0.00758359640828
0.0079796031041
0.00838375296861
0.00879338420395
0.00920556154022
0.00961712832604
0.0100247719338
0.0104251002141
0.0108147262229
0.0111903570886
0.0115488828137
0.011887460775
0.0122035868069
0.0124951728477
0.0127605228358
0.0129986255123
0.0132081767087
0.0133910917158
0.0135401096727
0.0136816545492
0.0022779287055
0.00228668542776
0.00230363745056
0.00232841783711
0.00236088190682
0.00240103202302
0.00244900910582
0.00250507295181
0.00256958406671
0.00264299985137
0.00272586000845
0.00281878372463
0.00292245946137
0.00303763964776
0.00316513155963
0.00330578869289
0.00346049948387
0.00363017432143
0.00381572961036
0.00401806889499
0.00423806037185
0.00447651071409
0.00473413488807
0.00501152215563
0.00530909844923
0.00562708586318
0.00596546016926
0.00632390790969
0.00670178481712
0.00709807800717
0.00751137446105
0.00793983884406
0.00838120346029
0.00883277328825
0.00929144822677
0.00975376431751
0.0102159542224
0.010674026419
0.011123860641
0.0115613161411
0.0119823473426
0.01238312251
0.0127601309267
0.0131103074426
0.0134310231086
0.0137204954974
0.0139765666875
0.0142011318749
0.0143848431049
0.0145593247571
0.00217523365161
0.0021831842308
0.0021985936449
0.00222115030841
0.0022507591951
0.00228746394321
0.00233144482128
0.00238299831876
0.00244252285214
0.00251051614562
0.00258756313483
0.00267433546678
0.00277158359774
0.00288013434711
0.00300088452973
0.00313479550423
0.00328288517788
0.00344621838523
0.00362589445367
0.0038230315265
0.00403874709587
0.00427413403566
0.00453023180151
0.00480799227001
0.00510824020951
0.00543162837578
0.00577858790364
0.00614927482745
0.00654351447622
0.00696074576047
0.00739996832004
0.00785969582426
0.00833791944332
0.00883208551422
0.00933909168533
0.0098553050824
0.0103766055652
0.0108984553988
0.0114159954395
0.0119241653411
0.0124178433479
0.012892001099
0.0133418541442
0.0137630475667
0.0141516728184
0.014504832721
0.0148191403492
0.0150962602679
0.0153241512659
0.0155405127743
0.00207458977128
0.00208171409319
0.00209554006656
0.00211580920141
0.00214247212752
0.00217560838984
0.00221543086355
0.00226226461881
0.00231653651309
0.00237877361726
0.00244959371643
0.00252970686274
0.00261990997118
0.00272108713347
0.00283420618507
0.00296031669977
0.00310054558532
0.00325609160836
0.00342821715065
0.00361823713554
0.00382750395236
0.00405738786625
0.0043092518463
0.00458442023112
0.00488414035383
0.00520953683568
0.00556155816903
0.00594091608868
0.0063480183897
0.00678289694235
0.00724513327737
0.00773378516086
0.00824731847092
0.00878354957344
0.00933960398757
0.00991189744687
0.0104961451903
0.0110874044839
0.0116801537676
0.0122684096346
0.0128458791884
0.0134061462562
0.0139428666438
0.0144500277959
0.0149220038474
0.0153543203549
0.0157418423911
0.0160856578824
0.0163702222961
0.0166402716162
0.00197617487252
0.00198245887766
0.001994672367
0.00201260758995
0.00203625692853
0.00206573061048
0.00210126768909
0.00214321395117
0.0021920155334
0.00224821812405
0.00231245996814
0.0023854754241
0.00246809180073
0.00256123244387
0.00266591617153
0.00278325872899
0.00291447227203
0.00306086424123
0.00322383412961
0.00340486772597
0.00360552797732
0.00382744136709
0.00407227891993
0.00434173045797
0.00463747114142
0.0049611189188
0.00531418216243
0.00569799656117
0.00611365130468
0.00656190496195
0.00704309250515
0.00755702613328
0.00810289374752
0.00867916051733
0.00928348027093
0.00991262485151
0.0105624402258
0.0112278385874
0.0119028346937
0.0125806334243
0.0132537709657
0.0139143146193
0.0145540930351
0.0151650345209
0.0157392692898
0.0162701424629
0.0167500666753
0.0171790086553
0.0175368285609
0.0178763116914
0.00188013599784
0.00188557133102
0.00189615442586
0.00191172589001
0.00193231605825
0.00195806094662
0.00198921968718
0.00202615142024
0.00206931285527
0.00211925800775
0.00217663369897
0.00224218466056
0.00231675264355
0.00240128191879
0.0024968214374
0.00260452965905
0.00272567775916
0.00286165312628
0.00301396121784
0.00318422593116
0.00337418711649
0.0035856945901
0.00382069712466
0.00408122527529
0.00436936619173
0.00468722895868
0.00503689841037
0.00542037600017
0.00583950604855
0.00629588650879
0.00679076411121
0.00732491470834
0.00789851138542
0.00851098454689
0.00916088049085
0.00984572719456
0.0105619184207
0.0113046289677
0.0120677752357
0.0128440351791
0.0136249385459
0.0144010430482
0.0151621696085
0.0158978053008
0.0165972489042
0.0172509149697
0.0178478336782
0.0183860261046
0.0188392765308
0.0192694089018
0.0017865916713
0.00179117526245
0.00180012039913
0.00181331366328
0.00183081977133
0.00185279593772
0.00187951579131
0.0019113449789
0.00194874275489
0.00199226188184
0.00204254646276
0.00210033841754
0.00216647844229
0.00224191370177
0.0023277024058
0.00242502162646
0.00253517409581
0.00265959595556
0.00279986387352
0.00295770146257
0.00313498416637
0.0033337415671
0.00355615609942
0.00380455644337
0.00408140404739
0.00438927038088
0.00473080281365
0.00510867616894
0.00552552746879
0.00598387114424
0.00648599239508
0.00703381744289
0.00762876029881
0.00827154790469
0.00896202776437
0.00969896544295
0.0104798428967
0.0113006725462
0.012155845596
0.0130380367298
0.0139381857871
0.0148455886072
0.0157480759966
0.016632434233
0.0174845594384
0.0182910707091
0.0190364404857
0.0197155462693
0.020294089167
0.0208437590491
0.0016956341632
0.00169936777459
0.00170667686323
0.00171749166321
0.00173190790286
0.00175009984525
0.00177235052312
0.00179902594854
0.00183058061295
0.00186755726425
0.00191058701588
0.00196039660289
0.00201781114879
0.00208376350275
0.00215930084101
0.00224559508518
0.00234395269977
0.00245582643168
0.0025828270727
0.00272673590869
0.00288951666904
0.00307332666381
0.00328052572982
0.00351368190879
0.00377557178343
0.00406917353839
0.00439764965276
0.0047643162981
0.00517259539266
0.00562594524298
0.00612776552591
0.00668127209761
0.00728933831566
0.00795430028977
0.00867772608684
0.0094601518732
0.0103007925069
0.0111972395968
0.0121451664598
0.0131380670503
0.0141670587376
0.0152207995882
0.0162855108757
0.0173453159115
0.0183823143197
0.0193784608404
0.020312291322
0.021173886207
0.0219181701074
0.0226271271257
0.00160733183339
0.00161022157158
0.00161590507161
0.00162435395123
0.00163569188694
0.00165010641892
0.00166788550345
0.00168939002993
0.00171506330554
0.00174543028209
0.00178109977292
0.00182277226014
0.00187124395653
0.00192741742967
0.00199230978889
0.00206706502055
0.00215296632797
0.0022514509942
0.00236412633481
0.00249278725703
0.00263943494863
0.00280629619471
0.00299584275949
0.00321080954209
0.00345421027614
0.00372934842682
0.00403982093953
0.00438951103687
0.00478256602487
0.00522335480823
0.00571639887086
0.00626627017917
0.00687744832703
0.00755413009712
0.00829998493367
0.00911785249811
0.0100093820444
0.0109746193509
0.0120115548715
0.0131156583981
0.0142794326066
0.0154920518613
0.0167390881621
0.0180026040227
0.0192609722928
0.0204908646436
0.0216634752806
0.0227619734379
0.0237269915292
0.0246504706504
0.00152173139971
0.0015237872335
0.00152786320331
0.00153397015844
0.00154225690264
0.00155292095253
0.00156625126603
0.00158259889504
0.00160239037214
0.00162612607897
0.00165438453292
0.00168783007745
0.00172721821896
0.00177340690728
0.00182736578535
0.00189018989738
0.00196311371257
0.00204752845953
0.00214500111962
0.00225729632332
0.00238640047826
0.00253454848394
0.00270425238916
0.00289833169237
0.00311994402033
0.00337261497688
0.00366026463857
0.00398722797015
0.00435826474601
0.00477855360492
0.00525366345469
0.00578949326974
0.00639217043304
0.0070678953598
0.00782271997222
0.00866224677794
0.00959123734339
0.0106131225524
0.0117294139769
0.0129390286472
0.0142375488574
0.0156164856513
0.0170625483327
0.0185572642648
0.0200762650401
0.0215910521462
0.0230644883506
0.0244704651191
0.0257309997524
0.0269463861681
0.00143886020721
0.00144009546887
0.0014425886174
0.00144638766373
0.00145166405028
0.00145862236088
0.00146754924489
0.00147878188073
0.00149272539623
0.00150984988079
0.00153069667766
0.00155588568795
0.0015861215071
0.0016222049255
0.00166504284814
0.00171566251329
0.00177522663135
0.00184505203077
0.00192663084518
0.00202165522331
0.00213204571497
0.00225998355222
0.00240794717652
0.00257875275722
0.00277559868666
0.00300211302824
0.00326240296395
0.0035611037708
0.00390342437863
0.00429518475212
0.00474283841135
0.00525347161183
0.00583476709213
0.00649491810947
0.00724247405799
0.00808609664249
0.0090342022286
0.0100944658047
0.0112731633519
0.0125743388217
0.01399878742
0.0155429016459
0.0171973540608
0.0189459964921
0.0207642431869
0.0226200643794
0.0244682988619
0.026271619444
0.0279287626605
0.0295450152012
0.00135872837762
0.00135915931178
0.00136010009418
0.00136163397058
0.00136395277633
0.00136726569592
0.00137185431437
0.00137803864334
0.00138619858054
0.00139676924311
0.00141024931668
0.00142720724037
0.00144828827131
0.00147422554487
0.00150585016769
0.00154410537783
0.00159006190262
0.0016449370988
0.00171011696792
0.00178718246403
0.00187794023764
0.00198445871408
0.0021091099852
0.00225461825136
0.00242411511893
0.00262120221503
0.00285002071515
0.00311532736284
0.00342257513659
0.00377799572061
0.00418867928251
0.00466264397559
0.00520888518399
0.00583738914851
0.00655909133832
0.00738575232095
0.00832971755811
0.00940351924369
0.0106192715954
0.0119878099071
0.0135175157633
0.0152128211166
0.0170722913533
0.0190866374241
0.0212358328737
0.0234886139522
0.0257949236039
0.0281062489793
0.030294521607
0.0324649046703
0.00128133084616
0.00128097610419
0.00128039976258
0.00127971846269
0.00127914252168
0.00127888361284
0.00127921605304
0.00128044002495
0.00128290729715
0.00128701431579
0.00129321270757
0.00130201406875
0.00131399757934
0.00132982018036
0.00135022663777
0.0013760627166
0.00140829030908
0.00144800583825
0.00149646221465
0.00155509499504
0.00162555393433
0.00170974039603
0.00180985217871
0.00192843641774
0.00206845224336
0.00223334396677
0.00242712637623
0.00265448264419
0.00292087561238
0.00323267199668
0.00359727773181
0.0040232811597
0.00452059691253
0.00510060002099
0.00577623246675
0.00656205718954
0.00747422216095
0.00853028433991
0.00974882433566
0.0111487680257
0.0127482993614
0.0145632781713
0.0166049404221
0.018877108784
0.0213718983922
0.0240670627493