/*--------------------------------*- C++ -*----------------------------------*\
  =========                 |
  \\      /  F ield         | OpenFOAM: The Open Source CFD Toolbox
   \\    /   O peration     | Website:  https://openfoam.org
    \\  /    A nd           | Version:  7
     \\/     M anipulation  |
\*---------------------------------------------------------------------------*/
FoamFile
{
    version     2.0;
    format      ascii;
    class       volScalarField;
    location    "497";
    object      p;
}
// * * * * * * * * * * * * * * * * * * * * * * * * * * * * * * * * * * * * * //

dimensions      [0 2 -2 0 0 0 0];

internalField   nonuniform List<scalar> 
34240
(
0.00425060528865
0.00423959358354
0.00421341684507
0.00417394928293
0.00412417059074
0.00406546196089
0.00399842316944
0.0039237917477
0.00384247527334
0.0037553388332
0.00366315230943
0.00356663505932
0.00346648185452
0.00336335875823
0.0032578954079
0.00315068353842
0.00304227753522
0.00293319394874
0.00282391036275
0.00271486464163
0.00260645482336
0.00249903938848
0.00239293798196
0.002288432373
0.00218576792719
0.00208515518038
0.00198677189026
0.00189076497798
0.001797252935
0.00170632790171
0.00161805822621
0.00153249049493
0.00144965205639
0.0013695529049
0.00129218799043
0.00121753902441
0.00114557605538
0.0010762604979
0.00100954163663
0.000945373427806
0.00426453620379
0.00425353602291
0.00422743995189
0.00418809901803
0.00413846357379
0.00407990064734
0.00401299897731
0.00393848300367
0.00385724777272
0.0037701477482
0.00367794419142
0.00358134936543
0.00348105283479
0.00337771716999
0.00327197044266
0.00316440434779
0.00305557487092
0.00294600135485
0.0028361654384
0.00272650982271
0.00261743821658
0.00250931513186
0.00240246667346
0.00229718106691
0.00219371022932
0.00209227096191
0.0019930471372
0.00189619132195
0.00180182735094
0.00171005214166
0.00162093843928
0.00153453664101
0.00145087750712
0.00136997389775
0.00129182321291
0.00121640925609
0.00114370339402
0.00107366936558
0.00100625391552
0.00094142223856
0.00429093156612
0.00427999984724
0.00425408022185
0.00421499622698
0.00416565407873
0.00410739072455
0.0040407718907
0.00396649856872
0.00388544233675
0.00379843698228
0.00370622639663
0.00360950907152
0.00350896399295
0.00340524681564
0.00329898188648
0.00319076063097
0.0030811414621
0.00297064900806
0.00285977215275
0.00274896294674
0.00263863556948
0.00252916632165
0.00242089341859
0.00231411781936
0.00220910381767
0.00210608067517
0.00200524386515
0.00190675728764
0.00181075491677
0.00171734335887
0.00162660368476
0.00153859411783
0.00145335183996
0.00137089568365
0.00129122760929
0.00121433585272
0.0011401941466
0.00106877106822
0.00100000812681
0.000933892962388
0.0043285172826
0.00431770491219
0.00429205777591
0.00425336398135
0.00420447161821
0.00414667317032
0.00408050010335
0.00400661928892
0.0039258681653
0.00383904950258
0.00374688127798
0.00365004087507
0.00354919121784
0.00344497664708
0.0033380153531
0.00322889712403
0.00311818332282
0.00300640517432
0.00289406177536
0.00278161791094
0.00266950297967
0.00255810982213
0.00244779456449
0.002338876297
0.00223163787132
0.00212632644473
0.00202315511238
0.00192230410562
0.0018239230169
0.00172813241054
0.00163502639167
0.00154467440354
0.0014571238802
0.00137240213991
0.00129051863546
0.00121146779682
0.00113522759379
0.00106177326399
0.000991039724129
0.00092304600832
0.00437604465229
0.00436539377403
0.00434011959272
0.00430196313599
0.00425369583557
0.00419655198141
0.00413101798304
0.00405771607322
0.00397743849288
0.00389094688034
0.00379892412039
0.00370201893794
0.00360087158559
0.00349611023604
0.00338834313204
0.00327815652374
0.00316611379461
0.00305275363781
0.0029385869493
0.00282409443402
0.00270972424435
0.00259589061078
0.00248297236094
0.00237131253353
0.00226121789709
0.00215295963336
0.00204677378975
0.00194286285244
0.00184139689248
0.001742515779
0.00164633075835
0.00155292705936
0.00146236559382
0.00137468587128
0.00128990714335
0.00120803296473
0.00112904679786
0.00105293342251
0.000979619341974
0.000909164282379
0.00443232703187
0.00442188575361
0.00439709826109
0.00435964514524
0.0043122015968
0.00425593068997
0.00419126417514
0.00411876919281
0.00403918189755
0.00395321216324
0.00386149840659
0.00376465207482
0.00366328353518
0.00355799848647
0.00344939064624
0.00333803919448
0.00322450785292
0.00310934205979
0.00299306557772
0.00287617681037
0.00275914603563
0.00264241259837
0.00252638306103
0.00241142937536
0.00229788820312
0.00218606025813
0.00207621079964
0.00196857000647
0.00186333442985
0.00176066816604
0.0016607049831
0.001563550015
0.00146928219714
0.00137795642656
0.00128960538949
0.00120424408016
0.001121864027
0.00104246162113
0.000965954709944
0.000892451339078
0.00449623798764
0.00448605925363
0.00446188261895
0.00442531550333
0.00437891735389
0.00432376770715
0.00426023443521
0.00418881949814
0.00411019171015
0.0040249983907
0.0039338232672
0.00383723129669
0.00373579437067
0.00363008846461
0.00352068647358
0.00340815592893
0.00329305739258
0.00317594141007
0.00305734399516
0.00293778245245
0.00281775117701
0.00269771822123
0.00257812189393
0.00245936837183
0.00234182951273
0.00222584183069
0.00211170563984
0.00199968533084
0.00189000968975
0.00178287323741
0.00167843745079
0.00157683286211
0.00147816077375
0.00138249605097
0.00128988816277
0.00120036720317
0.00111393497515
0.00103060276565
0.000950279273514
0.000873128813805
0.0045667082552
0.00455684954338
0.0045334190634
0.00449793851484
0.00445283205218
0.00439908352424
0.00433698840124
0.00426697354167
0.00418962934784
0.00410552936129
0.00401519203613
0.00391912558868
0.00381785394348
0.00371191449872
0.00360185180734
0.0034882152487
0.00337155744928
0.00325243048006
0.00313138092977
0.00300894450176
0.00288564106148
0.002761969663
0.00263840427527
0.00251538975866
0.00239333890267
0.0022726298434
0.00215360467441
0.0020365683656
0.00192178887292
0.00180949736796
0.00169988956221
0.00159312696446
0.00148933894443
0.00138862498869
0.00129105597984
0.00119668076849
0.00110551479677
0.00101758739666
0.000932798829968
0.000851376731256
0.00464272390767
0.00463324688151
0.00461070799493
0.0045765308306
0.00453298465526
0.00448094631349
0.00442063108314
0.00435238153002
0.0042766986633
0.00419407106754
0.00410494079446
0.00400974842839
0.00390895918222
0.00380306181138
0.00369256317761
0.00357798648515
0.00345986954921
0.0033387608517
0.00321521385219
0.00308978091097
0.00296300703734
0.00283542385947
0.0027075437405
0.00257985459248
0.00245281521904
0.00232685170799
0.00220235445382
0.00207967637598
0.00195913163854
0.0018409956083
0.00172550502061
0.00161285943413
0.00150322226242
0.00139672375929
0.00129346108148
0.00119350691044
0.00109689382648
0.00100367349882
0.000913738753833
0.000827387799199
0.00472332507852
0.00471429480675
0.00469280137238
0.00466015808961
0.00461846029514
0.0045684674099
0.00451030789585
0.00444423147257
0.00437063934524
0.00428992397976
0.00420243976214
0.00410854805615
0.00400864369115
0.00390315525193
0.00379254102616
0.00367728798774
0.00355791040525
0.00343494581686
0.0033089490141
0.0031804851983
0.00305012273457
0.00291842578377
0.00278594700056
0.00265322070434
0.00252075668322
0.00238903490643
0.00225850116327
0.00212956376156
0.00200259123303
0.00187791105008
0.0017558092576
0.0016365309475
0.00152028126272
0.00140722769409
0.00129750033188
0.00119120077663
0.00108838410353
0.000989128217848
0.000893321688168
0.000801338989019
0.00480760526911
0.00479908925613
0.004778801256
0.00474793276075
0.00470838685246
0.00466079645238
0.00460519774122
0.00454174018624
0.00447071542817
0.0043924092064
0.0043070769693
0.00421498895745
0.0041164570967
0.00401183705937
0.00390152601407
0.00378596275037
0.00366562703356
0.00354103585075
0.00341273741951
0.00328130378115
0.00314732277738
0.00301138933385
0.0028740967937
0.00273602824024
0.0025977486644
0.00245979765535
0.0023226834532
0.00218687774942
0.0020528121247
0.00192087518928
0.0017914114
0.00166472037297
0.00154105755439
0.00142063583946
0.00130362559525
0.00119016424955
0.00108033508562
0.000974247989282
0.000871790453327
0.000773420184535
0.00489471123972
0.00488677826367
0.00486785915964
0.0048390127612
0.00480193283122
0.00475711815322
0.00470450876545
0.00464414770851
0.00457620850255
0.00450086026432
0.00441824871955
0.00432854098769
0.00423195303852
0.00412875386196
0.00401926541251
0.00390386444708
0.0037829829451
0.0036571052897
0.00352676252062
0.0033925249987
0.00325499357835
0.00311479007211
0.00297254687645
0.00282889685538
0.00268446320479
0.00253985046478
0.00239563604483
0.00225236350412
0.00211053654965
0.00197061514425
0.00183301215992
0.0016980923531
0.00156617114762
0.00143751678603
0.00131234835899
0.00119084776696
0.00107313312213
0.00095935349945
0.000849399337203
0.000743819142938
0.00498384330426
0.00497656217562
0.00495917595015
0.00493260101586
0.00489830624682
0.00485665050621
0.00480747546461
0.00475071325692
0.00468641209075
0.00461461583834
0.00453535045793
0.00444866834351
0.00435467626233
0.00425354198748
0.00414549692341
0.00403084003072
0.00390994003278
0.00378323387899
0.00365122208172
0.00351446163926
0.003373557218
0.00322915065794
0.00308190960383
0.00293251539812
0.00278165125651
0.00262999062127
0.00247818675489
0.00232686312841
0.00217660572162
0.00202795637004
0.0018814083072
0.00173740273359
0.00159632726616
0.00145851617857
0.00132424860568
0.00119375997004
0.00106721291668
0.000944802702861
0.000826430206599
0.000712740641339
0.00507425591707
0.00506769416647
0.00505200228438
0.00502794558933
0.00499675447452
0.00495864400901
0.00491335724762
0.00486071272933
0.00480062803675
0.00473301469857
0.00465777017902
0.0045748212924
0.00448415264979
0.00438581594802
0.00427993569187
0.00416671573201
0.00404644378121
0.00391949190236
0.00378631350934
0.00364743735255
0.00350345911561
0.0033550306902
0.00320284786449
0.00304763678037
0.00289014002383
0.00273110270944
0.00257125928918
0.00241132138681
0.00225196713127
0.00209383220418
0.00193750267334
0.00178350992649
0.00163232688495
0.00148436757371
0.00133998331959
0.00119947549969
0.00106306137922
0.000930992845339
0.000803188479884
0.000680399167208
0.00516525835062
0.00515948094227
0.00514563926533
0.00512434036569
0.00509656471259
0.00506238191707
0.00502143812289
0.00497343774436
0.00491816447618
0.00485539246318
0.00478488359642
0.00470642960899
0.00461988075492
0.00452515798515
0.0044222620242
0.00431128304878
0.00419240799738
0.00406592395808
0.00393221743015
0.00379177039132
0.00364515287343
0.00349301289952
0.00333606357501
0.00317506869724
0.00301082676671
0.00284415497505
0.00267587291226
0.00250678761499
0.0023376794203
0.00216929016594
0.00200231278139
0.00183738386338
0.00167507728598
0.00151590229688
0.00136029761811
0.00120864470447
0.00106122875593
0.000918369962295
0.000780015245465
0.000647029956118
0.00525621534851
0.00525128343004
0.00523943928388
0.00522112594918
0.00519706502811
0.00516718116936
0.00513102747346
0.00508819587973
0.00503833539203
0.00498108002766
0.00491605123925
0.00484289796085
0.00476132529624
0.00467110952114
0.00457211078968
0.00446428620533
0.00434770066818
0.00422253360379
0.00408908173406
0.003947757717
0.00379908515947
0.00364368957188
0.00348228625426
0.00331566503371
0.00314467330431
0.00297019738052
0.00279314382163
0.00261442064992
0.0024349200908
0.00225550252438
0.00207698300285
0.00190011989135
0.00172560603588
0.0015540638222
0.00138603750954
0.00122200552621
0.00106233726735
0.00090743546705
0.000757288717004
0.000612887373782
0.00534654758046
0.00534251734584
0.00533280676398
0.00531769075532
0.00529762565153
0.00527239394365
0.00524146157824
0.00520431207582
0.00516046148028
0.00510940366629
0.00505061731135
0.00498360323336
0.00490791254922
0.00482316440432
0.0047290622888
0.0046254108019
0.00451213033746
0.00438926810453
0.0042570049265
0.00411565796408
0.00396567873709
0.00380764684539
0.0036422590333
0.00347031470552
0.00329269790566
0.00311035732799
0.00292428453322
0.00273549215851
0.00254499221845
0.00235377622106
0.00216279686028
0.00197295293195
0.00178507612718
0.00159992330353
0.00141816513518
0.00124039792728
0.00106709445791
0.000898758190169
0.00073543538233
0.000578254954638
0.00543573182326
0.00543265349527
0.00542519879946
0.00541347200319
0.00539766048629
0.00537740950696
0.00535210582487
0.00532113088141
0.00528387227307
0.00523968656701
0.00518791032056
0.00512789373633
0.00505902774878
0.00498076407643
0.00489263500313
0.00479427381687
0.00468543371799
0.00456600352659
0.00443601964834
0.0042956735645
0.00414531460585
0.00398544721874
0.00381672317944
0.00363992845349
0.00345596589869
0.00326583394615
0.00307060299339
0.00287138988966
0.00266933244843
0.00246556434805
0.00226119211906
0.00205727452802
0.00185480483935
0.00165469836733
0.00145777731931
0.00126478031482
0.00107630743123
0.000892984559881
0.000714936182753
0.000543445909701
0.0055233007467
0.00552121773407
0.00551612545329
0.00550795660395
0.00549662853706
0.00548165631688
0.00546235727966
0.00543801946485
0.00540790921899
0.00537125174035
0.00532724529633
0.00527509030642
0.00521401451706
0.00514329485863
0.00506228024077
0.00497041547519
0.00486726439901
0.0047525307802
0.00462607595554
0.00448793244395
0.00433831237126
0.00417761030683
0.00400639966653
0.0038254231544
0.00363557697344
0.00343789011996
0.00323349907336
0.0030236198169
0.00280951782734
0.00259247820635
0.00237377646282
0.00215465215009
0.0019362846459
0.00171977546656
0.00150612727316
0.00129625061935
0.0010909014673
0.000890855321522
0.000696340040078
0.000508814695423
0.00560884228487
0.00560779051031
0.00560514975145
0.00560068170868
0.00559403524772
0.00558460406816
0.00557164755164
0.00555437106131
0.00553192962093
0.00550342602579
0.00546792752573
0.00542448919178
0.00537217634883
0.00531008741243
0.00523737904616
0.0051532930266
0.00505718339397
0.00494854256375
0.00482702528706
0.0046924690414
0.00454490972684
0.00438459125159
0.00421196849563
0.00402770270213
0.00383264975772
0.00362784115146
0.00341445907724
0.00319380623296
0.00296727249445
0.00273629948248
0.0025023453166
0.00226685081395
0.00203120818666
0.00179673591207
0.00156465100097
0.00133607071827
0.00111194189122
0.00089322266171
0.000680275871484
0.000474761968414
0.00569199852666
0.00569200595887
0.00569188720104
0.00569123495375
0.0056894335002
0.00568576566184
0.00567944563458
0.00566960876209
0.00565531110438
0.0056355450691
0.00560925755958
0.00557536663114
0.00553278010822
0.00548041848196
0.00541724145252
0.00534227693822
0.00525465161595
0.00515362206167
0.00503860506146
0.00490920559068
0.00476524063835
0.00460675749273
0.00443404480672
0.00424763574268
0.0040483021074
0.00383703992736
0.00361504634784
0.00338368951704
0.00314447231014
0.00289899244351
0.00264890028804
0.00239585745619
0.00214149641801
0.00188738685394
0.0016349986312
0.00138569712658
0.00114066187735
0.000901074647447
0.000667472190682
0.000441749793088
0.00577246416221
0.00577355053568
0.00577600491436
0.00577925422272
0.00578242430677
0.00578469883351
0.00578526068081
0.00578318932203
0.00577745648643
0.00576695894636
0.00575053733184
0.00572698491943
0.00569506144812
0.0056535149044
0.00560110829635
0.00553664963322
0.00545902492176
0.00536723357362
0.00526042488702
0.0051379336802
0.00499931325507
0.00484436351316
0.00467315249337
0.0044860292841
0.00428362735917
0.0040668570929
0.00383688788116
0.0035951199007
0.00334314739897
0.00308271483686
0.00281566871433
0.00254390741631
0.00226933111145
0.00199379714003
0.00171907203572
0.001446817379
0.00117849597827
0.000915563139387
0.00065877817814
0.000410313563488
0.00584998446486
0.00585216120044
0.00585722022229
0.00586442701095
0.00587265700119
0.00588100745873
0.00588864442653
0.0058946069022
0.00589779870931
0.00589703826159
0.00589107707049
0.00587859976497
0.00585823197668
0.00582855984436
0.00578815560142
0.0057356071167
0.00566955193823
0.0055887158623
0.00549195466414
0.00537829719218
0.00524698760408
0.0050975245814
0.00492969483685
0.00474359870492
0.00453966531884
0.00431865609563
0.00408165510019
0.00383004668567
0.00356548063335
0.00328982705951
0.00300512281927
0.00271351331164
0.00241719117053
0.00211833941845
0.00181906945518
0.00152139499921
0.00122712214595
0.00093804115729
0.000655193989396
0.00038108484223
0.00592435288957
0.00592762318889
0.00593529890255
0.00594648926485
0.00595982901004
0.00597434232458
0.00598919326335
0.00600339645266
0.00601580571216
0.00602518036836
0.00603020277855
0.00602946862387
0.00602148795041
0.00600470108558
0.00597750156768
0.0059382635414
0.00588537514964
0.00581727854601
0.00573251553696
0.00562977702283
0.00550795429563
0.00536618958969
0.00520392316496
0.00502093357383
0.00481736828997
0.00459376164172
0.00435103832488
0.00409050084809
0.00381380124296
0.00352289761511
0.00321999808427
0.00290749512627
0.00258789335436
0.00226373837439
0.00193753860039
0.00161172329695
0.00128851311549
0.000970107761959
0.000657906590257
0.000354814861498
0.0059954082969
0.0059997674079
0.00601005294799
0.00602522382566
0.00604368506311
0.00606440143723
0.00608654972728
0.00610913669355
0.00613098492715
0.00615081553611
0.00616726391718
0.00617885973319
0.00618402017739
0.00618106116185
0.00616821599782
0.00614365884251
0.00610553537501
0.00605200217736
0.00598127416526
0.00589167873503
0.00578171477696
0.00565011433193
0.00549590364896
0.00531846018269
0.00511756136347
0.00489342151147
0.00464671310319
0.00437857005822
0.00409057112261
0.00378470366321
0.00346330873199
0.00312901109445
0.00278463656758
0.00243312623002
0.00207743911132
0.0017204909812
0.00136500011971
0.00101366617097
0.000668338131197
0.000332411167112
0.00606303191163
0.00606846753157
0.0060813380315
0.00610045839196
0.0061240159705
0.00615092971052
0.00618040345698
0.00621145245161
0.00624288731455
0.0062734127256
0.00630164105177
0.00632606145376
0.00634502479753
0.0063567489909
0.00635933196966
0.0063507692881
0.00632897987757
0.00629184225192
0.00623724116009
0.00616312380088
0.00606756451464
0.00594883591571
0.00580548367503
0.00563640089284
0.00544089767233
0.00521876066614
0.00497029785151
0.00469636381565
0.00439836228804
0.00407822386338
0.00373835883127
0.00338158734158
0.00301104950936
0.00263010515343
0.00224221593901
0.00185086066948
0.0014593511054
0.00107099523785
0.0006882057365
0.000314980467081
0.00612714403703
0.00613363684039
0.00614905061871
0.00617206316231
0.00620065687115
0.00623371815809
0.00627049145279
0.00631001637444
0.00635111067623
0.00639248483417
0.0064327530954
0.00647039161288
0.0065037145183
0.00653087263174
0.00654985938604
0.00655852079666
0.00655457399397
0.00653563753226
0.00649927408752
0.00644304553061
0.00636457999842
0.00626164994366
0.00613225866006
0.00597473177187
0.00578780863085
0.00557072798668
0.00532330131551
0.00504596743465
0.00473982256191
0.0044066212575
0.00404874584668
0.00366914456567
0.0032712399256
0.00285881697481
0.00243588445369
0.00200656346142
0.001574867023
0.00114484042265
0.000719599852565
0.00030388937701
0.00618770064542
0.00619522490135
0.00621312490057
0.00623994810064
0.00627348511649
0.00631260248448
0.00635659774945
0.00640454984559
0.00645530223402
0.00650759313068
0.00656006394965
0.00661120644372
0.0066593299188
0.00670255269705
0.00673879998512
0.0067658046148
0.00678111619103
0.00678212265248
0.00676608561688
0.00673019031441
0.00667161097971
0.0065875916579
0.00647554122445
0.00633313957099
0.00615845057638
0.00595003552351
0.005707059566
0.00542938279187
0.00511762724593
0.00477321252757
0.00439835356203
0.00399601831234
0.00356984371676
0.00312401906191
0.0026631284818
0.00219201140953
0.00171549977371
0.00123852686818
0.000765083013481
0.000300839844474
0.00624468986246
0.00625321412557
0.00627352950831
0.00630406000301
0.00634241772583
0.00638746124069
0.00643855239152
0.00649482319453
0.00655516028683
0.00661835082128
0.00668308823339
0.00674790884916
0.00681115036731
0.00687093594535
0.00692516327797
0.00697149491643
0.00700735611875
0.00702994498998
0.00703625690291
0.00702312500915
0.00698727887641
0.00692542285494
0.00683433429162
0.00671098024383
0.00655264906859
0.00635709136148
0.00612266215925
0.00584845458365
0.00553441384184
0.00518142006649
0.00479132986137
0.00436696891592
0.00391207046195
0.0034311650137
0.00292941155617
0.0024124309907
0.00188599655473
0.00135610193044
0.000827817751914
0.000307971464092
0.00629812846487
0.00630761630604
0.00633026418309
0.00636437932118
0.0064074085985
0.00645821347756
0.00651622987716
0.00658065509132
0.00665043501761
0.00672442554959
0.00680139598912
0.00687995564108
0.00695850419525
0.00703520853582
0.00710798284127
0.00717446769256
0.00723201519637
0.0072776853702
0.00730825630767
0.007320250753
0.00730998252253
0.00727362592072
0.00720731041345
0.0071072410451
0.00696984323591
0.00679192764013
0.00657086794723
0.00630478116646
0.00599269716765
0.00563470271235
0.00523204414041
0.00478717565028
0.00430374070539
0.00378648722383
0.00324110103064
0.00267401988482
0.0020920755009
0.00150251318725
0.000911729277069
0.000327992542394
0.00634805839473
0.00635846915701
0.00638335636148
0.00642091692363
0.00646844543576
0.00652481609009
0.00658954700431
0.00666191128534
0.00674092834151
0.00682554087231
0.00691461615293
0.00700686358314
0.00710077772454
0.0071946084765
0.00728633236501
0.00737362027536
0.00745380899628
0.00752388211904
0.00758046305576
0.00761982349242
0.00763791183745
0.00763040663351
0.0075927992372
0.00752050909814
0.00740903287374
0.00725412609745
0.00705201220057
0.00679960957285
0.00649476285708
0.00613646055591
0.00572501845476
0.00526220794984
0.00475130864766
0.00419707647611
0.00360560359154
0.00298412919068
0.00234063894344
0.00168383148384
0.00102171547193
0.000364354627981
0.00639454340042
0.00640583295227
0.00643285783904
0.00647371074996
0.00652554656327
0.00658726080663
0.00665846032017
0.00673850263104
0.00682649294651
0.00692147660609
0.00702243879524
0.00712821399621
0.00723742290175
0.00734843680448
0.00745934084801
0.0075678907519
0.00767147066242
0.00776705761825
0.00785119532777
0.00791998089284
0.00796906996835
0.00799370674485
0.00798878540138
0.00794894912812
0.00786873178892
0.00774274468347
0.007565907329
0.0073337159724
0.00704253746039
0.00668990991994
0.00627482522253
0.00579796540317
0.00526186111578
0.00467095165049
0.00403150824208
0.00335147244924
0.00264003026974
0.00190752952888
0.00116391566904
0.000421480091
0.00643766578795
0.00644978726276
0.00647884146339
0.00652282252997
0.00657875760874
0.00664557102561
0.00672296313444
0.00681038260584
0.00690703048211
0.00701206818375
0.00712461602868
0.00724365589418
0.00736796325892
0.00749606714042
0.00762620640506
0.00775627653765
0.00788377444606
0.00800574646596
0.00811874183427
0.00821877515481
0.00830130373401
0.00836122729575
0.00839291851037
0.00839029350062
0.00834693122096
0.00825624940102
0.00811174144138
0.00790727368177
0.00763743533037
0.00729792452352
0.00688594454379
0.00640057588966
0.00584308151281
0.00521710875357
0.00452873039225
0.00378636070297
0.00300034145476
0.00218282950796
0.00134605758729
0.000505064492138
0.00647752337924
0.00649042788035
0.0065213980023
0.00656833451452
0.00662814821829
0.00669979845874
0.00678308231247
0.00687754429529
0.00698248910571
0.00709720499374
0.00722096170695
0.00735290754032
0.00749199811914
0.00763695330354
0.00778620817845
0.0079378514142
0.0080895584655
0.0082385241182
0.00838139580957
0.00851421066817
0.00863234195935
0.00873046278143
0.0088025367554
0.00884184717308
0.00884107755947
0.00879245670773
0.00868797982891
0.00851971332751
0.00828018366632
0.00796284084995
0.00756257360359
0.00707624037943
0.00650316364575
0.00584553474836
0.00510864575348
0.00430096017101
0.00343377698095
0.00252113540433
0.00157790381113
0.0006224758823
0.00651422664112
0.00652786390584
0.00656063312373
0.0066103463731
0.00667380875798
0.00675001977765
0.00683887481566
0.00694001707348
0.007052860382
0.00717682791419
0.00731134990791
0.00745575653381
0.00760920492464
0.0077706348167
0.00793871600337
0.00811178040039
0.00828774579267
0.00846403490042
0.00863749004826
0.00880428525149
0.00895984054254
0.00909874591025
0.0092147047818
0.00930051002642
0.00934806843266
0.00934849215579
0.00929227643114
0.00916958134473
0.00897063021391
0.00868622725588
0.00830838226099
0.00783101124788
0.00725065752352
0.00656716572018
0.00578419709756
0.00490956371996
0.00395507866407
0.00293656848971
0.00187182891831
0.000783288295181
0.00654789606779
0.00656221507748
0.00659666461621
0.00664897219078
0.0067158471676
0.00679633321457
0.00689042420158
0.0069978629629
0.00711817577553
0.00725092606602
0.00739571241622
0.00755205843726
0.00771933977957
0.00789674018435
0.00808319752353
0.0082773319709
0.00847736306502
0.00868101823478
0.00888543158692
0.00908703328881
0.00928143278119
0.00946330175602
0.00962626585935
0.0097628180035
0.00986427093424
0.00992077147336
0.00992140311033
0.00985440582874
0.00970754069578
0.00946862017778
0.0091262105087
0.00867049147138
0.00809422536926
0.00739376292482
0.00656994805919
0.00562885983168
0.00458201120076
0.0034466262996
0.00224356470818
0.000999995083156
0.00657865976189
0.0065936092964
0.0066296197711
0.00668433770163
0.00675438589879
0.00683885529777
0.00693783704308
0.00705117290028
0.00717850274492
0.00731953303634
0.00747403526272
0.00764173416859
0.00782223623449
0.0080149879833
0.00821922266262
0.00843388723296
0.00865755595923
0.00888833204306
0.00912373454062
0.00936056898839
0.00959478288657
0.00982130958823
0.0100339072132
0.0102250036746
0.0103855648169
0.0105050098389
0.0105712058407
0.0105705805673
0.0104883971978
0.0103092346577
0.0100177079103
0.00959944300248
0.00904228408731
0.00833767242515
0.00748204739009
0.00647817053716
0.0053359006267
0.00407298566835
0.00271316342398
0.00128897085598
0.00660665128695
0.00662218041573
0.00665963303829
0.00671657767644
0.00678955908521
0.00687771765703
0.00698123946189
0.00710006288429
0.00723394068046
0.00738272261367
0.00754635458676
0.00772476625053
0.00791780254796
0.00812518583943
0.00834646539242
0.00858094588891
0.00882760101268
0.00908497242837
0.00935104972657
0.00962312782871
0.009897640415
0.0101699698424
0.0104342365575
0.0106830753499
0.0109074122337
0.0110962644165
0.0112365967284
0.0113132803631
0.0113092121757
0.0112056624544
0.010982920465
0.0106212970883
0.0101025091251
0.00941142704461
0.00853805275357
0.00747961307735
0.00624220396299
0.00484246767859
0.00330624019176
0.00167177344415
0.0066320077204
0.00664806623263
0.00668684386383
0.0067458335835
0.00682150986119
0.00691306405872
0.00702077371884
0.00714467021386
0.00728461668406
0.00744060429204
0.00761275190319
0.0078011942061
0.0080060175589
0.00822722750982
0.00846470295975
0.00871812890035
0.00898691351208
0.00927008893516
0.00956618985603
0.00987310436937
0.0101878930869
0.0105065733126
0.0108238667515
0.0111329126076
0.0114249538555
0.0116890134971
0.011911590434
0.0120764215217
0.0121643768377
0.012153576935
0.012019838807
0.0117375655742
0.0112811769014
0.0106271415578
0.00975654551062
0.00865811402594
0.00733106358761
0.00578817009958
0.00405556799042
0.00217691584858
0.00665486797276
0.00667140674426
0.00671139480854
0.00677225142665
0.00685038795676
0.00694504758794
0.00705659503166
0.00718514977343
0.00733068141425
0.0074933185741
0.00767334904921
0.00787110922705
0.00808692548995
0.00832108828318
0.00857381273053
0.00884517801111
0.00913505132526
0.00944299496223
0.0097681493224
0.010109084746
0.010463615506
0.010828569183
0.0111995047433
0.0115703744783
0.0119331291554
0.0122772734836
0.0125893916465
0.0128526818838
0.0130465657673
0.013146472062
0.0131239328017
0.0129471657158
0.0125823317141
0.0119956517998
0.0111564522237
0.0100411762443
0.00863776801643
0.00695075625969
0.00500311452449
0.00284229338739
0.00667537129129
0.00669234259316
0.00673342984569
0.00679597986571
0.0068763474715
0.00697382811434
0.00708886854218
0.00722167054629
0.00737230497345
0.00754103231229
0.00772830288168
0.00793464841547
0.00816062985531
0.00840681902151
0.00867376700078
0.00896195232457
0.00927171482668
0.0096031731532
0.00995611799873
0.0103298725569
0.01072311154
0.011133628569
0.0115580403049
0.0119914151822
0.0124268161302
0.0128547512541
0.0132625363579
0.0136335909855
0.0139467186743
0.0141754651026
0.0142877051499
0.0142456799226
0.0140067690686
0.0135253398129
0.0127559575408
0.0116582403444
0.0102029662487
0.00837982624381
0.00620259432679
0.00371849541089
0.00669365601024
0.00671101375888
0.00675309292666
0.00681716851383
0.00689954494004
0.0069995699451
0.00711776657654
0.00725441228424
0.00740967302507
0.0075839340908
0.00777779998736
0.00799198873094
0.0082272868305
0.0084845391228
0.00876462605087
0.00906842230069
0.00939674308171
0.00975027578356
0.0101294886199
0.0105345071518
0.0109649485156
0.0114197006646
0.0118966306039
0.0123922027231
0.0129009861839
0.0134150303712
0.0139230915864
0.01440970631
0.0148541311567
0.0152292139726
0.0155003301073
0.0156246192808
0.0155508816309
0.0152206379436
0.0145709218905
0.01353947801
0.012072447522
0.0101352620406
0.00772264382687
0.00487341463109
0.0067098584579
0.00672755841405
0.00677052670647
0.00683596650202
0.00692013758044
0.00702243978781
0.00714346611326
0.00728356249051
0.00744298307568
0.00762222982055
0.00782205140458
0.00804334089292
0.00828709826281
0.00855442883416
0.00884653002774
0.00916466173373
0.00951010695698
0.00988412053103
0.0102878576805
0.0107222731617
0.0111879803381
0.0116850558917
0.0122127712296
0.0127692261535
0.0133508545796
0.0139517663625
0.0145628857134
0.0151708484706
0.0157566337714
0.0162939396947
0.0167473795335
0.017070693026
0.0172053420874
0.0170801118856
0.0166125818472
0.0157136526062
0.0142960298383
0.0122881329425
0.00965042221594
0.00639829496313
0.00672411208153
0.00674211200184
0.00678587151755
0.00685252119978
0.00693828180683
0.00704260489142
0.00716614658328
0.00730931367352
0.00747244116061
0.0076561385885
0.00786128758359
0.00808894322032
0.00834030440052
0.00861672082582
0.00891968960538
0.00925083804785
0.00961189995243
0.0100046835429