/*--------------------------------*- C++ -*----------------------------------*\
  =========                 |
  \\      /  F ield         | OpenFOAM: The Open Source CFD Toolbox
   \\    /   O peration     | Website:  https://openfoam.org
    \\  /    A nd           | Version:  7
     \\/     M anipulation  |
\*---------------------------------------------------------------------------*/
FoamFile
{
    version     2.0;
    format      ascii;
    class       surfaceScalarField;
    location    "497";
    object      phi;
}
// * * * * * * * * * * * * * * * * * * * * * * * * * * * * * * * * * * * * * //

dimensions      [0 3 -1 0 0 0 0];

internalField   nonuniform List<scalar> 
67928
(
2.72430601536e-06
-3.27300844202e-11
2.72439962117e-06
-9.3605743698e-11
2.72454799309e-06
-1.48371929136e-10
2.72474567308e-06
-1.97679905436e-10
2.72498770088e-06
-2.42027809132e-10
2.72526951599e-06
-2.81815019623e-10
2.72558688384e-06
-3.17367852092e-10
2.72593583782e-06
-3.48953889553e-10
2.72631263509e-06
-3.76797279646e-10
2.72671372701e-06
-4.01091842902e-10
2.72713573938e-06
-4.22012370461e-10
2.72757546206e-06
-4.39722610459e-10
2.72802984408e-06
-4.54382008635e-10
2.7284959939e-06
-4.6614976562e-10
2.7289711819e-06
-4.75187980292e-10
2.72945284466e-06
-4.81662707274e-10
2.72993858928e-06
-4.85744591374e-10
2.73042619735e-06
-4.87608037074e-10
2.73091362775e-06
-4.87430365602e-10
2.7313990178e-06
-4.85390030487e-10
2.73188068299e-06
-4.81665135878e-10
2.7323571144e-06
-4.76431410376e-10
2.73282697515e-06
-4.69860682186e-10
2.73328909422e-06
-4.62119082586e-10
2.73374246014e-06
-4.53365831453e-10
2.73418621201e-06
-4.43751903639e-10
2.73461963139e-06
-4.33419274725e-10
2.73504213146e-06
-4.22500121612e-10
2.73545324814e-06
-4.11116539074e-10
2.7358526283e-06
-3.99380225135e-10
2.73624002104e-06
-3.87392592351e-10
2.7366152658e-06
-3.75244843956e-10
2.73697828431e-06
-3.63018357454e-10
2.73732906932e-06
-3.50785087977e-10
2.73766767735e-06
-3.38607890475e-10
2.73799421931e-06
-3.26542039907e-10
2.73830885111e-06
-3.1463167462e-10
2.7386117791e-06
-3.02928066364e-10
2.73890319402e-06
-2.91414802344e-10
-2.80334041732e-10
2.73918352798e-06
2.63627773133e-06
-6.41948920786e-11
2.63636788622e-06
-1.83760631924e-10
2.63651086601e-06
-2.91351610154e-10
2.63670144316e-06
-3.88257097326e-10
2.63693488875e-06
-4.75473278947e-10
2.63720685329e-06
-5.5377960927e-10
2.63751329564e-06
-6.2381007503e-10
2.63785042977e-06
-6.86088073406e-10
2.63821468265e-06
-7.41050025148e-10
2.63860266184e-06
-7.89071096472e-10
2.63901113684e-06
-8.30487222162e-10
2.63943702733e-06
-8.65613177961e-10
2.63987740003e-06
-8.94754563921e-10
2.64032946744e-06
-9.18217259491e-10
2.64079059212e-06
-9.36312508019e-10
2.64125828983e-06
-9.49360509208e-10
2.64173023601e-06
-9.57690610924e-10
2.64220426882e-06
-9.61640951964e-10
2.64267839438e-06
-9.61555752489e-10
2.64315078713e-06
-9.57782894609e-10
2.64361979214e-06
-9.50669978271e-10
2.64408392188e-06
-9.40561265629e-10
2.64454185507e-06
-9.27793695005e-10
2.64499243e-06
-9.12694134429e-10
2.64543464042e-06
-8.95576063403e-10
2.64586762602e-06
-8.76737640139e-10
2.64629066632e-06
-8.56459368256e-10
2.64670316919e-06
-8.35003137283e-10
2.64710466376e-06
-8.12610894898e-10
2.64749478797e-06
-7.89504591386e-10
2.64787328133e-06
-7.65885721453e-10
2.64823997231e-06
-7.41935982003e-10
2.64859477161e-06
-7.17817447466e-10
2.64893766019e-06
-6.93673810838e-10
2.64926868304e-06
-6.69630549923e-10
2.64958793913e-06
-6.45798268771e-10
2.6498955731e-06
-6.22265466102e-10
2.65019177906e-06
-5.99134157601e-10
2.65047673965e-06
-5.76375223504e-10
-5.54457846832e-10
2.65075086334e-06
2.55109385237e-06
-9.44609338268e-11
2.55118049046e-06
-2.70398634628e-10
2.55131793847e-06
-4.28799638706e-10
2.55150124162e-06
-5.71560146322e-10
2.55172592944e-06
-7.00161141525e-10
2.55198790434e-06
-8.15754387372e-10
2.55228336313e-06
-9.19268909434e-10
2.55260874206e-06
-1.01146688087e-09
2.55296067267e-06
-1.09298069688e-09
2.55333595062e-06
-1.16434890758e-09
2.55373151417e-06
-1.22605083771e-09
2.55414443383e-06
-1.27853270429e-09
2.55457190678e-06
-1.32222759556e-09
2.55501125813e-06
-1.35756846907e-09
2.55545994322e-06
-1.38499768686e-09
2.55591555419e-06
-1.40497132906e-09
2.55637582477e-06
-1.41796130457e-09
2.55683863766e-06
-1.42445368639e-09
2.55730202806e-06
-1.42494626405e-09
2.55776418902e-06
-1.41994369613e-09
2.55822347192e-06
-1.40995300194e-09
2.5586783885e-06
-1.39547767563e-09
2.55912760758e-06
-1.37701290806e-09
2.55956995374e-06
-1.35504012234e-09
2.56000440058e-06
-1.33002304462e-09
2.56043006659e-06
-1.30240346479e-09
2.56084620575e-06
-1.27259867186e-09
2.56125220152e-06
-1.24099872064e-09
2.5616475558e-06
-1.20796531523e-09
2.56203188192e-06
-1.17383051128e-09
2.56240489291e-06
-1.13889685133e-09
2.56276639438e-06
-1.10343725146e-09
2.56311627283e-06
-1.06769602974e-09
2.56345448904e-06
-1.03188981196e-09
2.56378106685e-06
-9.96208471478e-10
2.5640960881e-06
-9.60819322342e-10
2.56439967946e-06
-9.25856937607e-10
2.56469202118e-06
-8.91475678919e-10
2.56497328008e-06
-8.57634214409e-10
-8.25035252566e-10
2.56524385767e-06
2.46866230464e-06
-1.23427112187e-10
2.46874525191e-06
-3.53345883272e-10
2.46887691168e-06
-5.60459318022e-10
2.46905263581e-06
-7.47284296942e-10
2.46926825127e-06
-9.15776495857e-10
2.46951994613e-06
-1.06744928502e-09
2.4698041906e-06
-1.20351325809e-09
2.47011767716e-06
-1.32495349276e-09
2.47045727509e-06
-1.43257849568e-09
2.4708199957e-06
-1.52706958235e-09
2.47120297117e-06
-1.60902617106e-09
2.47160344119e-06
-1.67900280575e-09
2.47201874895e-06
-1.73753522476e-09
2.47244634025e-06
-1.78515986111e-09
2.47288376867e-06
-1.82242597465e-09
2.47332870074e-06
-1.84990349754e-09
2.47377892475e-06
-1.86818518121e-09
2.47423235719e-06
-1.87788623058e-09
2.47468705122e-06
-1.879640153e-09
2.47514120123e-06
-1.8740938311e-09
2.47559314875e-06
-1.8619003733e-09
2.47604138343e-06
-1.84371248762e-09
2.47648454546e-06
-1.82017478322e-09
2.47692142265e-06
-1.79191745052e-09
2.47735094935e-06
-1.75954958296e-09
2.47777220005e-06
-1.72365431933e-09
2.47818438553e-06
-1.68478397696e-09
2.47858684376e-06
-1.64345711201e-09
2.47897903427e-06
-1.60015564203e-09
2.47936052738e-06
-1.55532378306e-09
2.47973099768e-06
-1.50936696144e-09
2.48009021258e-06
-1.46265231951e-09
2.48043802572e-06
-1.41550896226e-09
2.48077436555e-06
-1.36822980879e-09
2.48109922916e-06
-1.32107187786e-09
2.48141267221e-06
-1.27426252461e-09
2.48171480041e-06
-1.22798493201e-09
2.4820057739e-06
-1.18244931726e-09
2.48228574213e-06
-1.13760223417e-09
-1.09439246974e-09
2.48255509922e-06
2.3888941953e-06
-1.51036709411e-10
2.38897328281e-06
-4.32433310682e-10
2.38909889655e-06
-6.86073065561e-10
2.38926672028e-06
-9.15107936725e-10
2.38947290995e-06
-1.12196618396e-09
2.3897139722e-06
-1.30851143045e-09
2.38998668146e-06
-1.47622253725e-09
2.39028801769e-06
-1.6262896089e-09
2.390615116e-06
-1.75967683785e-09
2.39096523055e-06
-1.87718401961e-09
2.39133570977e-06
-1.97950544961e-09
2.39172398326e-06
-2.06727618117e-09
2.39212755498e-06
-2.14110702322e-09
2.3925440042e-06
-2.20160896124e-09
2.39297098891e-06
-2.24941077629e-09
2.39340625436e-06
-2.28516882207e-09
2.39384764105e-06
-2.3095719684e-09
2.39429309576e-06
-2.32334080911e-09
2.39474067982e-06
-2.32722432569e-09
2.3951885791e-06
-2.32199298086e-09
2.39563510978e-06
-2.30843116832e-09
2.39607872523e-06
-2.28732779505e-09
2.39651801793e-06
-2.25946761431e-09
2.39695172253e-06
-2.22562190068e-09
2.39737871356e-06
-2.18654076028e-09
2.39779800489e-06
-2.14294549412e-09
2.39820874375e-06
-2.09552299792e-09
2.39861020731e-06
-2.04492051377e-09
2.39900179395e-06
-1.99174246268e-09
2.39938301798e-06
-1.93654764423e-09
2.39975349914e-06
-1.87984831316e-09
2.40011295649e-06
-1.82210949592e-09
2.40046119709e-06
-1.76374978184e-09
2.40079810997e-06
-1.70514250842e-09
2.40112365449e-06
-1.64661663149e-09
2.40143785577e-06
-1.58846363275e-09
2.40174079018e-06
-1.53091961266e-09
2.40203259609e-06
-1.47425502322e-09
2.40231339857e-06
-1.4184049811e-09
-1.36458186753e-09
2.40258358819e-06
2.31170345441e-06
-1.77226042904e-10
2.31177849825e-06
-5.07477127328e-10
2.31189778686e-06
-8.05361591337e-10
2.31205735907e-06
-1.0746801502e-09
2.31225372559e-06
-1.31833260965e-09
2.3124837377e-06
-1.53852355301e-09
2.31274450105e-06
-1.73698577564e-09
2.3130333088e-06
-1.91509736375e-09
2.31334758833e-06
-2.07395626799e-09
2.31368486065e-06
-2.21445636726e-09
2.31404271412e-06
-2.33735881568e-09
2.31441878795e-06
-2.44335006714e-09
2.31481076558e-06
-2.53308454503e-09
2.31521637321e-06
-2.60721666107e-09
2.31563338525e-06
-2.66642271035e-09
2.3160596317e-06
-2.71141533894e-09
2.31649300978e-06
-2.74294993223e-09
2.31693149491e-06
-2.76182602425e-09
2.31737315393e-06
-2.76888323339e-09
2.31781615559e-06
-2.76499473383e-09
2.31825878209e-06
-2.75105754092e-09
2.31869943651e-06
-2.72798232086e-09
2.31913665083e-06
-2.69668181567e-09
2.31956908906e-06
-2.65806024234e-09
2.31999555097e-06
-2.61300253464e-09
2.32041497077e-06
-2.562365422e-09
2.32082641694e-06
-2.50696903479e-09
2.32122908699e-06
-2.44759069225e-09
2.32162230412e-06
-2.38495946307e-09
2.3220055092e-06
-2.31975286152e-09
2.32237825528e-06
-2.25259426813e-09
2.32274019787e-06
-2.1840522251e-09
2.32309108836e-06
-2.1146401419e-09
2.32343076362e-06
-2.04481792226e-09
2.32375913909e-06
-1.97499197836e-09
2.32407619922e-06
-1.90552393659e-09
2.32438198752e-06
-1.83670777514e-09
2.32467661281e-06
-1.76888050408e-09
2.32496017406e-06
-1.70196609637e-09
-1.63746372829e-09
2.32523305571e-06
2.23700679725e-06
-2.01928899497e-10
2.23707761069e-06
-5.78290497037e-10
2.2371902853e-06
-9.18036202705e-10
2.23734123411e-06
-1.2256288756e-09
2.23752734203e-06
-1.50444054103e-09
2.23774582657e-06
-1.75700799591e-09
2.23799414638e-06
-1.98530558349e-09
2.2382699313e-06
-2.19088217672e-09
2.23857092395e-06
-2.37494890419e-09
2.23889493614e-06
-2.53846846627e-09
2.23923981842e-06
-2.68224110179e-09
2.23960344196e-06
-2.80697352771e-09
2.23998368881e-06
-2.91333141962e-09
2.24037845049e-06
-3.00197824757e-09
2.24078563164e-06
-3.07360390195e-09
2.24120315939e-06
-3.12894298968e-09
2.24162899464e-06
-3.16878523851e-09
2.24206114677e-06
-3.19397806012e-09
2.24249768763e-06
-3.20542415687e-09
2.24293676709e-06
-3.20407409759e-09
2.24337662598e-06
-3.19091650496e-09
2.24381560934e-06
-3.16696558065e-09
2.24425217576e-06
-3.13324832128e-09
2.24468490653e-06
-3.09079090873e-09
2.24511251018e-06
-3.04060628304e-09
2.24553382695e-06
-2.98368208348e-09
2.24594782845e-06
-2.9209706258e-09
2.24635361773e-06
-2.85337986597e-09
2.2467504249e-06
-2.78176670611e-09
2.24713760359e-06
-2.7069314393e-09
2.24751462369e-06
-2.629614422e-09
2.24788106537e-06
-2.55049378958e-09
2.24823661012e-06
-2.47018491404e-09
2.24858103346e-06
-2.38924114962e-09
2.24891419525e-06
-2.30815373508e-09
2.24923603272e-06
-2.22736130639e-09
2.24954654742e-06
-2.147222372e-09
2.24984581485e-06
-2.06814785821e-09
2.25013390035e-06
-1.99005144344e-09
-1.91474738073e-09
2.25041118406e-06
2.16472363169e-06
-2.25078379151e-10
2.16479002494e-06
-6.44683722972e-10
2.16489578749e-06
-1.02379867883e-09
2.16503772109e-06
-1.3675624806e-09
2.16521310055e-06
-1.67981992633e-09
2.16541952586e-06
-1.96343330967e-09
2.16565482708e-06
-2.22060671408e-09
2.16591698977e-06
-2.45304484466e-09
2.16620409296e-06
-2.66205199979e-09
2.16651426074e-06
-2.84863620554e-09
2.16684562871e-06
-3.01360899274e-09
2.16719632205e-06
-3.15766685119e-09
2.16756444377e-06
-3.28145305732e-09
2.16794807064e-06
-3.38560512566e-09
2.16834525666e-06
-3.4707898406e-09
2.16875404123e-06
-3.53772757745e-09
2.16917246235e-06
-3.58720628276e-09
2.16959857171e-06
-3.62008745042e-09
2.17003045242e-06
-3.63730479546e-09
2.17046623623e-06
-3.63985795311e-09
2.17090412151e-06
-3.62880171149e-09
2.17134238876e-06
-3.60523289933e-09
2.17177941575e-06
-3.57027523694e-09
2.17221368878e-06
-3.52506401071e-09
2.17264381311e-06
-3.47073053035e-09
2.17306851888e-06
-3.40838794613e-09
2.17348666633e-06
-3.33911798442e-09
2.17389724629e-06
-3.26395991891e-09
2.17429938063e-06
-3.1839009474e-09
2.17469231821e-06
-3.09986912643e-09
2.17507543163e-06
-3.01272770548e-09
2.17544820971e-06
-2.92327196791e-09
2.1758102519e-06
-2.83222698087e-09
2.17616125884e-06
-2.74024816953e-09
2.17650102511e-06
-2.64791984967e-09
2.17682943009e-06
-2.55576633098e-09
2.1771464261e-06
-2.4642182245e-09
2.17745204782e-06
-2.37376959879e-09
2.17774632117e-06
-2.28432462683e-09
-2.19804673719e-09
2.17802962057e-06
2.09477597161e-06
-2.46608465558e-10
2.09483775656e-06
-7.06468606553e-10
2.09493630823e-06
-1.12235034446e-09
2.09506882779e-06
-1.50008196755e-09
2.09523299011e-06
-1.84398225989e-09
2.09542678944e-06
-2.15723256686e-09
2.09564844013e-06
-2.44225740995e-09
2.09589629912e-06
-2.70090374131e-09
2.09616879915e-06
-2.93455199238e-09
2.09646439665e-06
-3.14423361586e-09
2.09678153368e-06
-3.33074596138e-09
2.09711861256e-06
-3.4947456613e-09
2.09747398046e-06
-3.63682091628e-09
2.09784592296e-06
-3.75754755986e-09
2.09823266512e-06
-3.85753198173e-09
2.09863237927e-06
-3.93744165995e-09
2.09904319753e-06
-3.99802453268e-09
2.09946322868e-06
-4.04011854831e-09
2.09989057707e-06
-4.06465318467e-09
2.10032336345e-06
-4.07264428257e-09
2.10075974554e-06
-4.0651838137e-09
2.10119793853e-06
-4.04342583555e-09
2.10163623335e-06
-4.00857008779e-09
2.10207301364e-06
-3.96184425694e-09
2.10250676916e-06
-3.90448610391e-09
2.10293610737e-06
-3.83772609693e-09
2.10335976076e-06
-3.76277145437e-09
2.10377659268e-06
-3.68079179139e-09
2.10418559865e-06
-3.59290704071e-09
2.10458590701e-06
-3.50017740132e-09
2.10497677495e-06
-3.40359582566e-09
2.10535758552e-06
-3.30408245897e-09
2.10572783961e-06
-3.20248131718e-09
2.10608715077e-06
-3.09955919718e-09
2.10643523416e-06
-2.99600358545e-09
2.106771902e-06
-2.89243402579e-09
2.10709704598e-06
-2.78936268327e-09
2.10741065379e-06
-2.68737716595e-09
2.10771270233e-06
-2.58637372605e-09
-2.48890458885e-09
2.10800356049e-06
2.02708835256e-06
-2.66456081215e-10
2.0271453488e-06
-7.63464821098e-10
2.02723640009e-06
-1.2134015654e-09
2.02735911255e-06
-1.62279443041e-09
2.02751156654e-06
-1.99643618501e-09
2.02769215642e-06
-2.3378224609e-09
2.02789948931e-06
-2.64959023597e-09
2.0281323041e-06
-2.93371852811e-09
2.0283894015e-06
-3.19164930653e-09
2.02866958723e-06
-3.42441929191e-09
2.02897163013e-06
-3.63278877665e-09
2.02929423226e-06
-3.81734770866e-09
2.02963600954e-06
-3.97859813652e-09
2.02999548169e-06
-4.11701964545e-09
2.03037107043e-06
-4.23312067594e-09
2.0307611052e-06
-4.32747636807e-09
2.03116383486e-06
-4.40075415716e-09
2.03157744457e-06
-4.45372820465e-09
2.0320000761e-06
-4.48728467554e-09
2.03242985077e-06
-4.50241889704e-09
2.0328648934e-06
-4.50022641486e-09
2.03330335647e-06
-4.48188886387e-09
2.03374344311e-06
-4.44865670138e-09
2.03418342839e-06
-4.40182950591e-09
2.03462167801e-06
-4.34273571114e-09
2.03505666407e-06
-4.27271213459e-09
2.03548697747e-06
-4.19308485257e-09
2.03591133707e-06
-4.10515138553e-09
2.0363285954e-06
-4.0101653774e-09
2.03673774133e-06
-3.90932335493e-09
2.03713789989e-06
-3.80375440244e-09
2.03752832947e-06
-3.69451210738e-09
2.03790841725e-06
-3.58256910743e-09
2.03827767236e-06
-3.46881444244e-09
2.03863571847e-06
-3.35404971509e-09
2.03898228548e-06
-3.23900127e-09
2.03931719603e-06
-3.12427321929e-09
2.03964037804e-06
-3.01055950045e-09
2.03995175413e-06
-2.89774976687e-09
-2.78883175385e-09
2.04025168084e-06
1.9615877513e-06
-2.84563518356e-10
1.96163979282e-06
-8.1550629372e-10
1.96172307388e-06
-1.29668261213e-09
1.96183560666e-06
-1.73532714697e-09
1.96197587659e-06
-2.13670611713e-09
1.96214267903e-06
-2.50462485285e-09
1.96233501641e-06
-2.8419276213e-09
1.96255201571e-06
-3.15071776827e-09
1.96279285499e-06
-3.4324885798e-09
1.96305670325e-06
-3.68826746764e-09
1.96334267382e-06
-3.9187592779e-09
1.96364979017e-06
-4.12446398056e-09
1.96397696175e-06
-4.3057696241e-09
1.96432296937e-06
-4.46302721859e-09
1.96468645966e-06
-4.59661088241e-09
1.96506594738e-06
-4.70696405362e-09
1.9654598253e-06
-4.79463199429e-09
1.96586637977e-06
-4.86028264696e-09
1.96628381166e-06
-4.90471647229e-09
1.9667102604e-06
-4.92886762058e-09
1.96714383097e-06
-4.93379688311e-09
1.96758262112e-06
-4.92067901047e-09
1.9680247493e-06
-4.89078476234e-09
1.96846838018e-06
-4.84546039088e-09
1.96891174924e-06
-4.78610464674e-09
1.96935318298e-06
-4.71414591144e-09
1.96979111738e-06
-4.63101910619e-09
1.97022411069e-06
-4.53814474203e-09
1.9706508547e-06
-4.436909226e-09
1.97107017981e-06
-4.32864853664e-09
1.97148105941e-06
-4.21463380474e-09
1.97188260801e-06
-4.09606079335e-09
1.97227408017e-06
-3.97404101814e-09
1.97265486324e-06
-3.84959763687e-09
1.97302447249e-06
-3.72365865456e-09
1.97338254133e-06
-3.59707026222e-09
1.9737288091e-06
-3.47054056519e-09
1.97406313385e-06
-3.34488448064e-09
1.97438537157e-06
-3.21998697327e-09
-3.09932499439e-09
1.97469586458e-06
1.89820350627e-06
-3.00880611144e-10
1.89825044785e-06
-8.62447842142e-10
1.89832571919e-06
-1.37195389059e-09
1.89842773449e-06
-1.83734243821e-09
1.89855537876e-06
-2.26435032741e-09
1.8987078431e-06
-2.65708920181e-09
1.89888452251e-06
-3.01860698228e-09
1.89908493228e-06
-3.35112754966e-09
1.89930863274e-06
-3.65618898771e-09
1.8995551655e-06
-3.93480020295e-09
1.89982400321e-06
-4.18759691062e-09
1.9001145103e-06
-4.41497099715e-09
1.90042591379e-06
-4.61717304331e-09
1.90075728339e-06
-4.79439671652e-09
1.90110752074e-06
-4.94684819989e-09
1.90147535772e-06
-5.07480094424e-09
1.90185936236e-06
-5.17863661647e-09
1.90225795263e-06
-5.25887282249e-09
1.90266941577e-06
-5.31617960476e-09
1.90309193341e-06
-5.35138514681e-09
1.90352360943e-06
-5.36547290815e-09
1.90396250118e-06
-5.35957062377e-09
1.9044066502e-06
-5.33493380562e-09
1.90485411407e-06
-5.29292410379e-09
1.90530299474e-06
-5.23498534198e-09
1.90575146629e-06
-5.16261729346e-09
1.90619779709e-06
-5.0773499488e-09
1.90664037042e-06
-4.9807178647e-09
1.90707769824e-06
-4.87423711997e-09
1.90750843382e-06
-4.7593838654e-09
1.90793137663e-06
-4.63757670863e-09
1.90834547754e-06
-4.51016140038e-09
1.90874983593e-06
-4.37839952093e-09
1.90914369912e-06
-4.24346045023e-09
1.90952645309e-06
-4.10641278079e-09
1.9098976198e-06
-3.96823651088e-09
1.91025683721e-06
-3.82975817655e-09
1.91060388309e-06
-3.69192981942e-09
1.91093853075e-06
-3.55463490312e-09
-3.42190048561e-09
1.91126110682e-06
1.83686724166e-06
-3.15366918436e-10
1.83690896493e-06
-9.04171054106e-10
1.83697602711e-06
-1.43901606007e-09
1.83706723576e-06
-1.92855102711e-09
1.83718186426e-06
-2.3789788307e-09
1.83731948882e-06
-2.79471371274e-09
1.83747988803e-06
-3.17900619932e-09
1.83766296027e-06
-3.53419974917e-09
1.83786864711e-06
-3.86187583057e-09
1.83809686758e-06
-4.16302061401e-09
1.83834746402e-06
-4.43819332207e-09
1.83862015849e-06
-4.68766539606e-09
1.83891451784e-06
-4.91153231629e-09
1.83922992795e-06
-5.10980676417e-09
1.83956557706e-06
-5.28249723403e-09
1.83992044813e-06
-5.42967197439e-09
1.84029332022e-06
-5.5515086368e-09
1.8406827779e-06
-5.64833048972e-09
1.84108722865e-06
-5.72063027938e-09
1.84150492616e-06
-5.76908265476e-09
1.8419339996e-06
-5.79454625567e-09
1.84237248577e-06
-5.79805678823e-09
1.84281836447e-06
-5.78081239826e-09
1.84326959347e-06
-5.74415311338e-09
1.84372414393e-06
-5.68953568354e-09
1.8441800324e-06
-5.61850578234e-09
1.84463535124e-06
-5.53266864059e-09
1.84508829336e-06
-5.43366002768e-09
1.84553717454e-06
-5.32311812884e-09
1.84598044861e-06
-5.2026580087e-09
1.84641672064e-06
-5.07384852814e-09
1.84684475235e-06
-4.93819319797e-09
1.84726346687e-06
-4.79711380684e-09
1.84767194588e-06
-4.65193958642e-09
1.84806942739e-06
-4.50389402574e-09
1.84845529828e-06
-4.35410754275e-09
1.84882908064e-06
-4.20354021619e-09
1.84919045152e-06
-4.05330092656e-09
1.84953909115e-06
-3.90327417646e-09
-3.75810825539e-09
1.84987529857e-06
1.77751279312e-06
-3.27993416942e-10
1.77754921167e-06
-9.4058957645e-10
1.77760791401e-06
-1.49771833066e-09
1.7776880875e-06
-2.0087245072e-09
1.77778937777e-06
-2.48026904959e-09
1.77791172957e-06
-2.91706551537e-09
1.77805529055e-06
-3.32256713219e-09
1.77822033057e-06
-3.69923977348e-09
1.7784071658e-06
-4.04871102809e-09
1.77861609151e-06
-4.37194631657e-09
1.7788473254e-06
-4.66942716098e-09
1.77910095945e-06
-4.94129941325e-09
1.77937691975e-06
-5.18749253785e-09
1.77967493412e-06
-5.40782108042e-09
1.77999450875e-06
-5.60207178286e-09
1.78033491357e-06
-5.77007676978e-09
1.78069517728e-06
-5.91177228658e-09
1.78107409115e-06
-6.02724435333e-09
1.78147022205e-06
-6.11676111992e-09
1.78188193302e-06
-6.18079362309e-09
1.78230741133e-06
-6.22002450931e-09
1.78274470146e-06
-6.23534690771e-09
1.78319174261e-06
-6.22785348855e-09
1.78364640788e-06
-6.1988183624e-09
1.78410654449e-06
-6.14967224454e-09
1.78457001248e-06
-6.08197373654e-09
1.78503472119e-06
-5.9973773233e-09
1.78549866198e-06
-5.89760077216e-09
1.78595993628e-06
-5.78439241142e-09
1.78641677881e-06
-5.65950048692e-09
1.78686757501e-06
-5.52464473092e-09
1.78731087366e-06
-5.38149179464e-09
1.78774539368e-06
-5.23163384106e-09
1.78817002716e-06
-5.07657301825e-09
1.78858383684e-06
-4.91770375689e-09
1.78898605355e-06
-4.75632419459e-09
1.78937605909e-06
-4.59354584333e-09
1.78975341408e-06
-4.43065584904e-09
1.79011768371e-06
-4.26754400863e-09
-4.10955993989e-09
1.79046913554e-06
1.72007613566e-06
-3.38744001438e-10
1.72010719929e-06
-9.71653158608e-10
1.7201574467e-06
-1.5479657311e-09
1.72022642747e-06
-2.07770521189e-09
1.72031413823e-06
-2.56797980667e-09
1.72042087071e-06
-3.02379794293e-09
1.72054712104e-06
-3.44881746948e-09
1.72069351321e-06
-3.84563190538e-09
1.72086072483e-06
-4.21592264436e-09
1.7210494203e-06
-4.56064174704e-09
1.72126019222e-06
-4.88019907456e-09
1.72149350988e-06
-5.17461702167e-09
1.72174967361e-06
-5.44365622992e-09
1.72202877619e-06
-5.68692357781e-09
1.72233067169e-06
-5.90396725716e-09
1.72265495336e-06
-6.09435834885e-09
1.72300094028e-06
-6.25775921585e-09
1.72336767441e-06
-6.39397840127e-09
1.72375392668e-06
-6.50301342742e-09
1.72415821349e-06
-6.58508033491e-09
1.72457882076e-06
-6.64063182555e-09
1.72501383683e-06
-6.67036287766e-09
1.7254611898e-06
-6.67520651059e-09
1.72591869064e-06
-6.65631908515e-09
1.7263840768e-06
-6.61505847073e-09
1.72685505811e-06
-6.55295492325e-09
1.72732935906e-06
-6.47167833766e-09
1.72780476032e-06
-6.3730019086e-09
1.72827913357e-06
-6.2587657381e-09
1.72875047349e-06
-6.13084028932e-09
1.72921692136e-06
-5.99109268625e-09
1.72967678517e-06
-5.84135547939e-09
1.73012855093e-06
-5.68339969992e-09
1.7305708913e-06
-5.51891326817e-09
1.73100266539e-06
-5.34947796889e-09
1.73142291996e-06
-5.17657862281e-09
1.73183087164e-06
-5.00149767965e-09
1.73222594112e-06
-4.82572516964e-09
1.73260755775e-06
-4.64916081198e-09
-4.47794757191e-09
1.73297594555e-06
1.6644953151e-06
-3.47616372993e-10
1.66452101265e-06
-9.97350668819e-10
1.66456277096e-06
-1.58972397766e-09
1.66462048006e-06
-2.13541430319e-09
1.66469446234e-06
-2.64196203305e-09
1.66478532987e-06
-3.11466546949e-09
1.66489390163e-06
-3.55738918508e-09
1.66502113219e-06
-3.97286246941e-09
1.66516804138e-06
-4.36283178802e-09
1.66533564886e-06
-4.72824923263e-09
1.66552491543e-06
-5.06946560263e-09
1.66573668863e-06
-5.38639020393e-09
1.66597165289e-06
-5.67862044338e-09
1.6662302844e-06
-5.9455550399e-09
1.66651281251e-06
-6.18649529678e-09
1.66681918868e-06
-6.40073449685e-09
1.66714906442e-06
-6.58763485724e-09
1.66750177871e-06
-6.7466927211e-09
1.66787635662e-06
-6.87759123987e-09
1.66827151762e-06
-6.98024137712e-09
1.66868569549e-06
-7.05480960813e-09
1.66911706652e-06
-7.10173395614e-09
1.66956358718e-06
-7.12172706644e-09
1.67002303693e-06
-7.11576888984e-09
1.67049306695e-06
-7.08508838248e-09
1.67097124954e-06
-7.03113756631e-09
1.6714551293e-06
-6.95555799498e-09
1.6719422707e-06
-6.86014336114e-09
1.67243030365e-06
-6.74679857611e-09
1.67291696221e-06
-6.61749891298e-09
1.67340011903e-06
-6.47424939877e-09
1.67387781106e-06
-6.31904757653e-09
1.67434826032e-06
-6.15384886476e-09
1.67480988597e-06
-5.98053898578e-09
1.6752613113e-06
-5.80090320978e-09
1.67570136607e-06
-5.61663347295e-09
1.67612907272e-06
-5.42920424043e-09
1.6765436839e-06
-5.24033645063e-09
1.67694446807e-06
-5.04994489741e-09
-4.86507120544e-09
1.6773315916e-06
1.61071037951e-06
-3.54622665531e-10
1.61073074061e-06
-1.01771171456e-09
1.61076403957e-06
-1.62302292403e-09
1.61081048206e-06
-2.18185673403e-09
1.61087068706e-06
-2.70216702042e-09
1.61094555644e-06
-3.18953480331e-09
1.61103620135e-06
-3.64803409805e-09
1.6111438782e-06
-4.08053927185e-09
1.61126992339e-06
-4.4888769748e-09
1.61141569157e-06
-4.87401737963e-09
1.61158249775e-06
-5.2362717723e-09
1.611771562e-06
-5.57545441968e-09
1.6119839559e-06
-5.89101431224e-09
1.612220552e-06
-6.18215108974e-09
1.61248197762e-06
-6.44792088364e-09
1.61276857495e-06
-6.68733174566e-09
1.61308036866e-06
-6.89942855541e-09
1.61341704332e-06
-7.0833672873e-09
1.61377793092e-06
-7.23847886816e-09
1.61416201072e-06
-7.36432109107e-09
1.61456792001e-06
-7.46071894157e-09
1.61499397749e-06
-7.52779134734e-09
1.61543821611e-06
-7.56596573262e-09
1.61589842623e-06
-7.57597891298e-09
1.61637220458e-06
-7.55886678542e-09
1.61685700941e-06
-7.51594229373e-09
1.61735021642e-06
-7.44876504873e-09
1.61784917608e-06
-7.35910292055e-09
1.61835126688e-06
-7.248889421e-09
1.61885394568e-06
-7.12017761766e-09
1.61935479041e-06
-6.97509417274e-09
1.61985153722e-06
-6.81579428841e-09
1.62034210815e-06
-6.64441985e-09
1.62082463276e-06
-6.46306351024e-09
1.62129745946e-06
-6.27372997046e-09
1.62175916494e-06
-6.07833888173e-09
1.62220854062e-06
-5.8785799781e-09
1.62264464016e-06
-5.67643592628e-09
1.62306653815e-06
-5.47184295457e-09
-5.27286121454e-09
1.62347432821e-06
1.55866331488e-06
-3.5978943762e-10
1.55867841031e-06
-1.03280710949e-09
1.55870334493e-06
-1.64795747521e-09
1.55873861235e-06
-2.21712414137e-09
1.55878509635e-06
-2.74865096037e-09
1.55884395451e-06
-3.24839296051e-09
1.55891655562e-06
-3.72063516768e-09
1.55900442406e-06
-4.16840770251e-09
1.55910918169e-06
-4.59363457216e-09
1.55923249105e-06
-4.99732672733e-09
1.55937600042e-06
-5.37978111475e-09
1.5595412889e-06
-5.74074287013e-09
1.55972981086e-06
-6.07953624413e-09
1.55994284097e-06
-6.39518117253e-09
1.56018142129e-06
-6.68650115788e-09
1.56044631238e-06
-6.95222280314e-09
1.56073795065e-06
-7.19106675235e-09
1.56105641378e-06
-7.40183040196e-09
1.56140139664e-06
-7.58346163768e-09
1.56177219862e-06
-7.73512309607e-09
1.56216772449e-06
-7.8562447347e-09
1.56258649776e-06
-7.9465646597e-09
1.56302668795e-06
-8.00615583444e-09
1.56348614873e-06
-8.03543974445e-09
1.56396246742e-06
-8.03518539329e-09
1.56445302107e-06
-8.00649598096e-09
1.56495503897e-06
-7.95078285721e-09
1.56546566621e-06
-7.86973020271e-09
1.56598202797e-06
-7.76525108434e-09
1.5665012892e-06
-7.63943888496e-09
1.56702071033e-06
-7.49451521781e-09
1.56753769429e-06
-7.33277828678e-09
1.56804982653e-06
-7.15655200586e-09
1.56855490477e-06
-6.96814178875e-09
1.56905096019e-06
-6.76978532241e-09
1.5695362723e-06
-6.56365104115e-09
1.57000936045e-06
-6.35166806329e-09
1.57046903992e-06
-6.13611544485e-09
1.57091415445e-06
-5.91695744182e-09
-5.70341021876e-09
1.5713447034e-06
1.5082979822e-06
-3.63157438797e-10
1.50830792319e-06
-1.0427480592e-09
1.50832465286e-06
-1.66468712541e-09
1.50834892338e-06
-2.24139459909e-09
1.5083818493e-06
-2.7815768666e-09
1.50842480755e-06
-3.291351158e-09
1.50847938668e-06
-3.77521429287e-09
1.50854734129e-06
-4.23636226939e-09
1.50863054229e-06
-4.67683556766e-09
1.508730927e-06
-5.09771140082e-09
1.50885044877e-06
-5.49930287188e-09
1.50899102439e-06
-5.88131846125e-09
1.50915447834e-06
-6.24299016186e-09
1.50934248491e-06
-6.58318771893e-09
1.50955650987e-06
-6.90052608585e-09
1.50979775348e-06
-7.19346637247e-09
1.51006709741e-06
-7.46041065825e-09
1.51036505805e-06
-7.6997909681e-09
1.51069174866e-06
-7.91015223452e-09
1.51104685319e-06
-8.09022754012e-09
1.51142961294e-06
-8.23900451673e-09
1.51183882846e-06
-8.35578009771e-09
1.51227287567e-06
-8.44020309405e-09
1.51272973779e-06
-8.49230178227e-09
1.51320704958e-06
-8.51249723577e-09
1.51370215431e-06
-8.50160062254e-09
1.51421216812e-06
-8.46079671653e-09
1.5147340514e-06
-8.39161339316e-09
1.51526468094e-06
-8.29588065739e-09
1.51580092244e-06
-8.17568030189e-09
1.51633969753e-06
-8.03329034523e-09
1.51687804547e-06
-7.87112614131e-09
1.51741317478e-06
-7.69168135315e-09
1.51794250662e-06
-7.49747355944e-09
1.51846370522e-06
-7.29098395344e-09
1.51897470349e-06
-7.07464925606e-09
1.51947369854e-06
-6.85066314943e-09
1.51995922184e-06
-6.62163868715e-09
1.5204298398e-06
-6.38757544748e-09
-6.15900257889e-09
1.52088543221e-06
1.45956005561e-06
-3.64780788032e-10
1.45956499189e-06
-1.0476842979e-09
1.459573738e-06
-1.67343317331e-09
1.45958727392e-06
-2.25493050607e-09
1.45960691001e-06
-2.80121290065e-09
1.45963420449e-06
-3.3186456362e-09
1.45967092582e-06
-3.81193556612e-09
1.45971901777e-06
-4.28445421944e-09
1.45978055979e-06
-4.7383775447e-09
1.45985772522e-06
-5.17487682968e-09
1.45995273761e-06
-5.59431521567e-09
1.46006782213e-06
-5.9964029591e-09
1.46020515185e-06
-6.38031985067e-09
1.46036678899e-06
-6.74482483142e-09
1.46055462286e-06
-7.08835993204e-09
1.46077030628e-06
-7.40914976994e-09
1.46101519289e-06
-7.70529722701e-09
1.46129027825e-06
-7.97487630328e-09
1.46159614788e-06
-8.21602179291e-09
1.46193293513e-06
-8.42701478451e-09
1.46230029216e-06
-8.60636146509e-09
1.46269737557e-06
-8.75286354404e-09
1.4631228494e-06
-8.86567684292e-09
1.46357490452e-06
-8.94435694674e-09
1.46405129598e-06
-8.98888861969e-09
1.46454939464e-06
-8.99969932979e-09
1.46506625296e-06
-8.97765495571e-09
1.46559867936e-06
-8.92403982668e-09
1.46614331986e-06
-8.84052108034e-09
1.46669674062e-06
-8.72910109208e-09
1.46725550986e-06
-8.59205950753e-09
1.46781627333e-06
-8.43188964295e-09
1.4683758227e-06
-8.25123065141e-09
1.46893115258e-06
-8.0528034764e-09
1.46947950588e-06
-7.83933719056e-09
1.47001841054e-06
-7.61355394469e-09
1.47054568386e-06