/*--------------------------------*- C++ -*----------------------------------*\
  =========                 |
  \\      /  F ield         | OpenFOAM: The Open Source CFD Toolbox
   \\    /   O peration     | Website:  https://openfoam.org
    \\  /    A nd           | Version:  7
     \\/     M anipulation  |
\*---------------------------------------------------------------------------*/
FoamFile
{
    version     2.0;
    format      ascii;
    class       volVectorField;
    location    "497";
    object      U;
}
// * * * * * * * * * * * * * * * * * * * * * * * * * * * * * * * * * * * * * //

dimensions      [0 1 -1 0 0 0 0];

internalField   nonuniform List<vector> 
34240
(
(0.78000201657 -4.61533698237e-06 0)
(0.780018677192 -1.36836565693e-05 0)
(0.780052701528 -2.24689312464e-05 0)
(0.780102803563 -3.10120854463e-05 0)
(0.780166295402 -3.93355962413e-05 0)
(0.780241502274 -4.74502226255e-05 0)
(0.780327404691 -5.53593545138e-05 0)
(0.780422969273 -6.30596231111e-05 0)
(0.780527069074 -7.05418653268e-05 0)
(0.780638621462 -7.77926784024e-05 0)
(0.78075663314 -8.47960292183e-05 0)
(0.780880171278 -9.15344577634e-05 0)
(0.78100834255 -9.79902367577e-05 0)
(0.781140294247 -0.000104146288607 0)
(0.781275219917 -0.000109987057611 0)
(0.781412361239 -0.000115499090063 0)
(0.781551008252 -0.000120671549193 0)
(0.781690500127 -0.000125496466941 0)
(0.78183022635 -0.000129968952002 0)
(0.781969627472 -0.000134087174571 0)
(0.782108195257 -0.000137852335457 0)
(0.78224547224 -0.000141268459473 0)
(0.782381050846 -0.000144342205785 0)
(0.782514571996 -0.000147082551581 0)
(0.782645723316 -0.000149500521101 0)
(0.782774236933 -0.000151608828386 0)
(0.782899887013 -0.000153421585126 0)
(0.783022487028 -0.000154953954978 0)
(0.783141886921 -0.000156221883385 0)
(0.783257970134 -0.000157241795835 0)
(0.783370650652 -0.000158030371947 0)
(0.783479870047 -0.000158604305738 0)
(0.783585594596 -0.000158980127698 0)
(0.78368781256 -0.000159174055792 0)
(0.783786531358 -0.00015920175759 0)
(0.783881775676 -0.000159078738143 0)
(0.783973583429 -0.000158818089962 0)
(0.784062008495 -0.000158439944063 0)
(0.784147106266 -0.000157929256254 0)
(0.784228962324 -0.000157424727943 0)
(0.780001991884 -1.36491485072e-05 0)
(0.780018568784 -4.04940848732e-05 0)
(0.780052441503 -6.65200961134e-05 0)
(0.780102342393 -9.18408199255e-05 0)
(0.78016561104 -0.000116522952381 0)
(0.780240591535 -0.00014059861123 0)
(0.780326280424 -0.000164076845824 0)
(0.780421660854 -0.000186947151748 0)
(0.780525621489 -0.000209182163267 0)
(0.780637093144 -0.000230741871174 0)
(0.780755093725 -0.000251578014639 0)
(0.780878699433 -0.000271637976913 0)
(0.781007023699 -0.000290868088009 0)
(0.781139218236 -0.000309216567727 0)
(0.78127447874 -0.000326635921015 0)
(0.781412046918 -0.000343084907881 0)
(0.781551210904 -0.000358529912303 0)
(0.781691306264 -0.000372945933969 0)
(0.781831717427 -0.000386317043258 0)
(0.781971878709 -0.000398636565048 0)
(0.782111274727 -0.000409906820151 0)
(0.78224944023 -0.000420138722902 0)
(0.782385959458 -0.000429351047778 0)
(0.782520464976 -0.000437569681092 0)
(0.782652636083 -0.000444826640162 0)
(0.782782196772 -0.000451159185871 0)
(0.782908913412 -0.000456608778725 0)
(0.783032592119 -0.000461220211997 0)
(0.783153076005 -0.00046504063288 0)
(0.783270242259 -0.000468118794355 0)
(0.783383999225 -0.00047050421636 0)
(0.783494283467 -0.00047224660903 0)
(0.783601056849 -0.000473395190438 0)
(0.783704303893 -0.000473998359692 0)
(0.783804028654 -0.000474102876878 0)
(0.783900253638 -0.000473755016694 0)
(0.783993013052 -0.000472994242355 0)
(0.784082364012 -0.000471879203448 0)
(0.784168345051 -0.000470372168481 0)
(0.784251091556 -0.000468854641891 0)
(0.780001980271 -2.23255393552e-05 0)
(0.780018448885 -6.62688400737e-05 0)
(0.780052094255 -0.000108900453434 0)
(0.780101675364 -0.000150400663861 0)
(0.780164576629 -0.000190882038327 0)
(0.780239179395 -0.000230400160175 0)
(0.780324511641 -0.000268970702996 0)
(0.780419587111 -0.000306576958689 0)
(0.780523323835 -0.000343174362396 0)
(0.780634678806 -0.000378696704595 0)
(0.780752691944 -0.000413063256164 0)
(0.780876457169 -0.000446185332018 0)
(0.781005101258 -0.000477971929014 0)
(0.781137784872 -0.000508334584241 0)
(0.781273708313 -0.000537191477991 0)
(0.781412113815 -0.000564470736313 0)
(0.78155228629 -0.000590112898729 0)
(0.781693554778 -0.000614072598346 0)
(0.781835294339 -0.000636319515675 0)
(0.781976927607 -0.000656838691561 0)
(0.782117925703 -0.000675630287438 0)
(0.782257808599 -0.000692708889336 0)
(0.782396144925 -0.000708102458183 0)
(0.782532551275 -0.000721851014954 0)
(0.782666690967 -0.000734005155923 0)
(0.782798272376 -0.000744624469099 0)
(0.782927046847 -0.000753775926903 0)
(0.783052806324 -0.000761532303796 0)
(0.783175380723 -0.000767970665954 0)
(0.783294635165 -0.000773170966804 0)
(0.783410467084 -0.000777214764976 0)
(0.783522803359 -0.000780184095273 0)
(0.78363159733 -0.0007821604425 0)
(0.783736826297 -0.000783224031152 0)
(0.783838487831 -0.00078345257186 0)
(0.783936600235 -0.000782922998597 0)
(0.78403119063 -0.000781701162244 0)
(0.784122322302 -0.000779884421038 0)
(0.784210001741 -0.000777411775119 0)
(0.784294459817 -0.000774911228445 0)
(0.78000195825 -3.06599280651e-05 0)
(0.780018249379 -9.10223757937e-05 0)
(0.780051544804 -0.00014960946169 0)
(0.780100638872 -0.000206678982222 0)
(0.78016297702 -0.000262395630818 0)
(0.780236994579 -0.000316843249312 0)
(0.780321765677 -0.000370048071398 0)
(0.78041634855 -0.000421989826676 0)
(0.780519704338 -0.000472608098205 0)
(0.780630828934 -0.000521810745464 0)
(0.780748795315 -0.000569483838606 0)
(0.780872724236 -0.000615500929141 0)
(0.781001763064 -0.000659731049029 0)
(0.781135086706 -0.000702045611965 0)
(0.781271903441 -0.000742324323325 0)
(0.781411457459 -0.000780459997544 0)
(0.781553030101 -0.000816362240074 0)
(0.781695941881 -0.000849960021012 0)
(0.781839555068 -0.000881203233349 0)
(0.78198327594 -0.000910063335742 0)
(0.782126556476 -0.000936533199718 0)
(0.782268895425 -0.000960626290666 0)
(0.782409838858 -0.000982375316021 0)
(0.782548980089 -0.00100183047696 0)
(0.782685959056 -0.00101905744112 0)
(0.782820461122 -0.00103413515818 0)
(0.782952215442 -0.00104715360462 0)
(0.783080992906 -0.00105821155391 0)
(0.783206603796 -0.00106741442066 0)
(0.783328895172 -0.00107487225048 0)
(0.783447748121 -0.00108069786204 0)
(0.783563074944 -0.00108500521292 0)
(0.783674816131 -0.00108790788914 0)
(0.783782938025 -0.00108951806368 0)
(0.783887428387 -0.00108994466304 0)
(0.783988298995 -0.00108929577239 0)
(0.784085566493 -0.00108766409817 0)
(0.784179302389 -0.00108518676668 0)
(0.784269467779 -0.00108177845232 0)
(0.784356427171 -0.00107832268541 0)
(0.780001928689 -3.86215967856e-05 0)
(0.780017978401 -0.000114669918718 0)
(0.780050794235 -0.000188519029188 0)
(0.780099216441 -0.000260517351297 0)
(0.780160770565 -0.000330888794581 0)
(0.780233962773 -0.000399750234599 0)
(0.780317927701 -0.000467142445519 0)
(0.780411782047 -0.00053304443468 0)
(0.780514543859 -0.000597381406521 0)
(0.780625260864 -0.000660035502921 0)
(0.780743050544 -0.000720858546773 0)
(0.780867070355 -0.000779684037726 0)
(0.780996496427 -0.000836337538406 0)
(0.781130524338 -0.000890645758873 0)
(0.78126837488 -0.000942444413015 0)
(0.781409296906 -0.000991584749769 0)
(0.781552569071 -0.0010379386408 0)
(0.781697502581 -0.00108140227274 0)
(0.781843444561 -0.00112189851446 0)
(0.781989781256 -0.00115937809549 0)
(0.782135940635 -0.00119381971238 0)
(0.782281394468 -0.00122522924102 0)
(0.782425659764 -0.00125363820073 0)
(0.782568299608 -0.00127910165985 0)
(0.78270892329 -0.00130169572149 0)
(0.782847185846 -0.00132151476273 0)
(0.782982786971 -0.00133866853392 0)
(0.78311546948 -0.00135327925727 0)
(0.783245017298 -0.0013654787881 0)
(0.783371253171 -0.00137540594436 0)
(0.783494036038 -0.00138320401741 0)
(0.783613258389 -0.00138901855972 0)
(0.783728843143 -0.00139299533543 0)
(0.783840741609 -0.0013952788652 0)
(0.783948928038 -0.00139600996763 0)
(0.784053405003 -0.00139532878446 0)
(0.784154175027 -0.00139335579594 0)
(0.7842513193 -0.00139026968469 0)
(0.784344740893 -0.00138595908262 0)
(0.784434972679 -0.00138157790792 0)
(0.780001890444 -4.61920452208e-05 0)
(0.780017626076 -0.000137164744912 0)
(0.780049815883 -0.000225561648775 0)
(0.780097357716 -0.000311832883965 0)
(0.780157876983 -0.000396269257827 0)
(0.78022996668 -0.000479026593733 0)
(0.780312835386 -0.000560165303528 0)
(0.780405671825 -0.000639667609827 0)
(0.780507564813 -0.000717446791507 0)
(0.780617627136 -0.000793360122455 0)
(0.780735032894 -0.000867224479291 0)
(0.780858987034 -0.000938831026317 0)
(0.780988703847 -0.00100795808648 0)
(0.781123407348 -0.00107438249016 0)
(0.78126233691 -0.00113788958284 0)
(0.781404750268 -0.0011982816611 0)
(0.781549925815 -0.00125538473634 0)
(0.781697166066 -0.0013090535881 0)
(0.781845801979 -0.00135917522678 0)
(0.781995197169 -0.00140567084145 0)
(0.782144751686 -0.00144849641971 0)
(0.782293905219 -0.0014876421707 0)
(0.782442139731 -0.00152313098956 0)
(0.782588981361 -0.0015550161187 0)
(0.782734001606 -0.00158337825232 0)
(0.782876817725 -0.00160832222071 0)
(0.783017092478 -0.00162997347789 0)
(0.783154533202 -0.0016484744825 0)
(0.783288890349 -0.00166398116167 0)
(0.783419955559 -0.00167665948666 0)
(0.783547559325 -0.00168668231052 0)
(0.783671568518 -0.00169422645943 0)
(0.783791883266 -0.00169947009639 0)
(0.783908435205 -0.00170259073039 0)
(0.784021180936 -0.00170376207704 0)
(0.784130110629 -0.00170315764668 0)
(0.784235208801 -0.00170092700743 0)
(0.78433656699 -0.00169729288259 0)
(0.784434018555 -0.00169211565574 0)
(0.784528295009 -0.00168683954241 0)
(0.780001842577 -5.3353247968e-05 0)
(0.780017184558 -0.000158453291195 0)
(0.780048588053 -0.000260649733142 0)
(0.780095019414 -0.000360506883599 0)
(0.780154223133 -0.000458392179173 0)
(0.780224894355 -0.000554508052745 0)
(0.780306328446 -0.00064894092694 0)
(0.780397799536 -0.000741681278886 0)
(0.780498481233 -0.000832633836614 0)
(0.780607565107 -0.000921632643649 0)
(0.78072429475 -0.00100845945095 0)
(0.780847934519 -0.00109286114615 0)
(0.780977747607 -0.0011745650716 0)
(0.781112995873 -0.00125329278501 0)
(0.781252945039 -0.00132877233693 0)
(0.781396867775 -0.00140074888013 0)
(0.781544046402 -0.00146899333844 0)
(0.781693777099 -0.00153330916118 0)
(0.781845375154 -0.00159353715256 0)
(0.781998180341 -0.00164955854189 0)
(0.782151561951 -0.00170129636347 0)
(0.782304923382 -0.00174871539323 0)
(0.782457706118 -0.00179182078737 0)
(0.782609392992 -0.00183065571605 0)
(0.7827595106 -0.00186529816572 0)
(0.782907630879 -0.00189585718913 0)
(0.783053371825 -0.00192246876549 0)
(0.783196397443 -0.00194529150451 0)
(0.783336416977 -0.00196450232131 0)
(0.783473183523 -0.00198029224623 0)
(0.783606492083 -0.00199286244371 0)
(0.783736177379 -0.00200242057417 0)
(0.783862110749 -0.00200917739555 0)
(0.783984198819 -0.0020133442145 0)
(0.784102375697 -0.00201512885534 0)
(0.784216615289 -0.00201473989128 0)
(0.784326879728 -0.00201235759932 0)
(0.78443327064 -0.0020082519629 0)
(0.784535540865 -0.00200225228151 0)
(0.78463464588 -0.00199611839085 0)
(0.780001784276 -6.00865209264e-05 0)
(0.780016646142 -0.000178480282912 0)
(0.780047088368 -0.000293694043063 0)
(0.780092156034 -0.000406419780233 0)
(0.780149731803 -0.000517111999445 0)
(0.780218627834 -0.000626028041303 0)
(0.780298238544 -0.000733287478901 0)
(0.780387936477 -0.000838894977775 0)
(0.780486994041 -0.000942751126104 0)
(0.780594695638 -0.00104466936988 0)
(0.780710367942 -0.00114439712848 0)
(0.780833347684 -0.00124163581528 0)
(0.780962959162 -0.00133605863168 0)
(0.781098513154 -0.00142732670928 0)
(0.78123931145 -0.00151510385449 0)
(0.781384649713 -0.00159906947449 0)
(0.781533820459 -0.00167892949067 0)
(0.781686117858 -0.00175442504911 0)
(0.781840843894 -0.00182533913988 0)
(0.781997314895 -0.00189150108066 0)
(0.782154867954 -0.00195278907946 0)
(0.782312867004 -0.00200913094027 0)
(0.782470708397 -0.00206050322891 0)
(0.78262782571 -0.00210692904862 0)
(0.782783693701 -0.00214847477762 0)
(0.782937831275 -0.00218524595022 0)
(0.783089803492 -0.00221738260619 0)
(0.7832392226 -0.00224505429056 0)
(0.783385748191 -0.00226845494442 0)
(0.783529086556 -0.00228779785756 0)
(0.783668989281 -0.002303310797 0)
(0.783805251484 -0.00231523152168 0)
(0.783937708815 -0.00232380349579 0)
(0.784066236651 -0.00232927266608 0)
(0.784190740938 -0.00233188238265 0)
(0.784311174655 -0.00233187826651 0)
(0.784427472574 -0.00232947329031 0)
(0.784539745166 -0.00232498856471 0)
(0.784647654546 -0.00231821897435 0)
(0.784752401158 -0.00231127049547 0)
(0.780001714786 -6.63731972291e-05 0)
(0.780016003753 -0.000197190395725 0)
(0.780045296381 -0.000324603983118 0)
(0.780088726193 -0.000449447092716 0)
(0.780144332676 -0.000572271958125 0)
(0.780211058991 -0.000693399795236 0)
(0.780288409881 -0.000812991471655 0)
(0.780375868618 -0.00093107302321 0)
(0.780472820126 -0.00104754666592 0)
(0.780578655797 -0.00116220932543 0)
(0.780692799516 -0.00127477624019 0)
(0.780814674361 -0.00138490344999 0)
(0.78094367931 -0.00149220787386 0)
(0.781079186933 -0.00159628588047 0)
(0.781220546828 -0.00169673048547 0)
(0.781367087964 -0.0017931468536 0)
(0.781518121627 -0.00188516561906 0)
(0.781672946619 -0.00197245397828 0)
(0.781830856159 -0.00205472437822 0)
(0.781991145523 -0.00213174092645 0)
(0.782153119845 -0.002203323447 0)
(0.782316101824 -0.00226934945704 0)
(0.782479439011 -0.00232975411892 0)
(0.782642510453 -0.00238452856808 0)
(0.782804732394 -0.00243371674016 0)
(0.782965562975 -0.0024774111562 0)
(0.783124505774 -0.0025157477986 0)
(0.783281112265 -0.0025489005275 0)
(0.783434983135 -0.00257707513024 0)
(0.783585768663 -0.00260050340273 0)
(0.783733168013 -0.00261943728305 0)
(0.783876928143 -0.00263414338996 0)
(0.784016840969 -0.00264489774327 0)
(0.784152743285 -0.00265198166202 0)
(0.784284506129 -0.00265567556452 0)
(0.784412055842 -0.0026562642909 0)
(0.78453529407 -0.00265399585172 0)
(0.784654337667 -0.00264924694601 0)
(0.784768748368 -0.00264177421142 0)
(0.784879987604 -0.00263406579624 0)
(0.7800016335 -7.21951687492e-05 0)
(0.780015251591 -0.000214529618885 0)
(0.780043195191 -0.000353290040012 0)
(0.780084695183 -0.000489463844396 0)
(0.78013796571 -0.000623711769188 0)
(0.780202093695 -0.000756428425383 0)
(0.780276704252 -0.00088782502568 0)
(0.780361402755 -0.00101795731756 0)
(0.780455699783 -0.00114673631651 0)
(0.780559107735 -0.00127394806229 0)
(0.780671162127 -0.00139927943293 0)
(0.780791387145 -0.00152234279344 0)
(0.780919271326 -0.00164269817603 0)
(0.781054263614 -0.00175987407209 0)
(0.78119577527 -0.00187338715506 0)
(0.781343181257 -0.00198276035465 0)
(0.781495822777 -0.00208753890371 0)
(0.781653012512 -0.00218730400461 0)
(0.781814042016 -0.00228168409766 0)
(0.781978190278 -0.00237036351318 0)
(0.782144732843 -0.00245308862688 0)
(0.782312951148 -0.00252967144112 0)
(0.78248214168 -0.00259999091595 0)
(0.782651624604 -0.00266399210009 0)
(0.782820751526 -0.00272168354367 0)
(0.782988912175 -0.00277313309405 0)
(0.783155539871 -0.0028184626487 0)
(0.783320115691 -0.00285784193224 0)
(0.78348217134 -0.0028914819126 0)
(0.783641290776 -0.00291962781959 0)
(0.783797110584 -0.00294255236715 0)
(0.783949319672 -0.00296054903218 0)
(0.784097656912 -0.00297392579229 0)
(0.78424191179 -0.00298299983722 0)
(0.784381912519 -0.00298809017162 0)
(0.784517551811 -0.00298952322582 0)
(0.784648691544 -0.00298758461689 0)
(0.784775451026 -0.00298271186322 0)
(0.784897282356 -0.00297461881923 0)
(0.785015919265 -0.00296621785585 0)
(0.780001539985 -7.75354984422e-05 0)
(0.780014385506 -0.000230447144347 0)
(0.780040772458 -0.000379667048926 0)
(0.780080037049 -0.000526349174833 0)
(0.78013058472 -0.000671273237813 0)
(0.780191657393 -0.000814917016065 0)
(0.780263009062 -0.000957551810893 0)
(0.780344377278 -0.00109927254083 0)
(0.780435410458 -0.00124000767334 0)
(0.780535755447 -0.00137953978718 0)
(0.78064507376 -0.00151753319761 0)
(0.780763005914 -0.00165356037289 0)
(0.780889145926 -0.00178712583758 0)
(0.781023035277 -0.00191768897213 0)
(0.781164162809 -0.00204468605331 0)
(0.781311964629 -0.00216755098573 0)
(0.781465825752 -0.00228573410291 0)
(0.781625084898 -0.00239871877521 0)
(0.781789041993 -0.0025060355102 0)
(0.781956967327 -0.00260727343412 0)
(0.782128111813 -0.00270208892722 0)
(0.782301717859 -0.00279021150373 0)
(0.782477030448 -0.00287144690038 0)
(0.782653307882 -0.00294567769347 0)
(0.782829831852 -0.00301286155289 0)
(0.783005916422 -0.00307302762684 0)
(0.783180915776 -0.00312627122792 0)
(0.783354230485 -0.00317274741352 0)
(0.783525312305 -0.00321266359717 0)
(0.783693667458 -0.00324627182004 0)
(0.783858858402 -0.00327386068096 0)
(0.784020504647 -0.00329574761018 0)
(0.784178281073 -0.00331227107066 0)
(0.784331919618 -0.00332378433111 0)
(0.784481196131 -0.00333064616296 0)
(0.784625961275 -0.0033332272056 0)
(0.784766029112 -0.00333185327821 0)
(0.784901515991 -0.00332702883302 0)
(0.785031755077 -0.00331841948165 0)
(0.785158758807 -0.00330941044782 0)
(0.780001434024 -8.23790648265e-05 0)
(0.780013403274 -0.000244897295552 0)
(0.780038021234 -0.000403657417746 0)
(0.780074736233 -0.000559990871453 0)
(0.780122160092 -0.000714806187898 0)
(0.780179699092 -0.000868674091919 0)
(0.780247242753 -0.00102193627322 0)
(0.780324669191 -0.00117473731491 0)
(0.780411775448 -0.00132703329738 0)
(0.780508355258 -0.00147861266666 0)
(0.780614209977 -0.00162912518132 0)
(0.780729111781 -0.0017781095837 0)
(0.780852776762 -0.00192501873626 0)
(0.780984856448 -0.00206924401563 0)
(0.781124935098 -0.00221013941667 0)
(0.781272527579 -0.00234704475535 0)
(0.781427079477 -0.00247930729428 0)
(0.781587970901 -0.00260630139706 0)
(0.781754523484 -0.00272744585083 0)
(0.781926009721 -0.00284221854083 0)
(0.782101663971 -0.00295016820073 0)
(0.782280694686 -0.00305092309605 0)
(0.782462297287 -0.00314419661621 0)
(0.782645667147 -0.00322978986855 0)
(0.782830012094 -0.00330759148983 0)
(0.783014564045 -0.0033775749602 0)
(0.783198589346 -0.00343979380715 0)
(0.783381397642 -0.00349437508942 0)
(0.783562348981 -0.00354151162011 0)
(0.78374085929 -0.00358145332901 0)
(0.783916403862 -0.00361449817727 0)
(0.784088519815 -0.00364098302217 0)
(0.78425680529 -0.0036612744799 0)
(0.784420922624 -0.00367576117766 0)
(0.784580583928 -0.00368484272296 0)
(0.78473558764 -0.00368893624978 0)
(0.78488569044 -0.00368841081027 0)
(0.785030998532 -0.00368384426564 0)
(0.785170716616 -0.00367484809523 0)
(0.785307137492 -0.00366533570651 0)
(0.780001315623 -8.67131713556e-05 0)
(0.780012304781 -0.000257841367301 0)
(0.780034940475 -0.00042519423394 0)
(0.780068788634 -0.000590289844982 0)
(0.780112680597 -0.000754174398662 0)
(0.780166194191 -0.000917521081643 0)
(0.780229358929 -0.00108075257445 0)
(0.780302199841 -0.00124407447975 0)
(0.780384671539 -0.0014074820526 0)
(0.780476725597 -0.00157078085533 0)
(0.780578316055 -0.00173361644836 0)
(0.780689361622 -0.00189550268518 0)
(0.780809717338 -0.00205584747482 0)
(0.780939163207 -0.00221397819264 0)
(0.781077398414 -0.00236916742166 0)
(0.781224036506 -0.00252065829164 0)
(0.781378603327 -0.00266768881304 0)
(0.781540539055 -0.00280951458733 0)
(0.781709204047 -0.00294542960078 0)
(0.781883887662 -0.00307478445667 0)
(0.782063819515 -0.00319700180047 0)
(0.782248182632 -0.003311588432 0)
(0.782436127927 -0.00341814413102 0)
(0.782626789303 -0.00351636695001 0)
(0.782819298748 -0.00360605530389 0)
(0.783012800793 -0.00368710686209 0)
(0.783206465898 -0.00375951482452 0)
(0.78339950227 -0.00382336176375 0)
(0.783591165912 -0.00387881176069 0)
(0.783780768683 -0.00392610107163 0)
(0.783967684204 -0.00396552806407 0)
(0.784151352259 -0.00399744267082 0)
(0.784331279532 -0.00402223573689 0)
(0.784507044398 -0.00404032961089 0)
(0.784678281805 -0.00405216503251 0)
(0.784844725471 -0.00405820784112 0)
(0.785006063358 -0.0040588731908 0)
(0.785162381896 -0.00405481973635 0)
(0.785312747419 -0.00404559776844 0)
(0.785459729137 -0.00403571226231 0)
(0.780001185033 -9.05280896813e-05 0)
(0.7800110921 -0.000269249266648 0)
(0.780031535309 -0.000444224073354 0)
(0.780062202175 -0.000617164215702 0)
(0.78010215445 -0.000789261099711 0)
(0.780151146237 -0.000961299318662 0)
(0.780209349087 -0.00113379317773 0)
(0.780276938896 -0.00130702126912 0)
(0.780354034521 -0.00148103083007 0)
(0.780440754315 -0.00165565763617 0)
(0.780537216268 -0.00183055580807 0)
(0.780643499516 -0.00200522601216 0)
(0.780759614565 -0.00217904108978 0)
(0.780885488789 -0.00235127180728 0)
(0.781020957035 -0.00252111354685 0)
(0.781165753518 -0.00268771335939 0)
(0.781319506804 -0.00285019655993 0)
(0.78148173928 -0.00300769248102 0)
(0.78165187095 -0.00315935866829 0)
(0.781829226945 -0.00330440310826 0)
(0.782013048253 -0.00344210364862 0)
(0.782202505212 -0.00357182436095 0)
(0.782396713133 -0.0036930281871 0)
(0.782594749295 -0.00380528596585 0)
(0.782795670557 -0.00390828145808 0)
(0.782998530839 -0.0040018128478 0)
(0.783202397799 -0.00408579061583 0)
(0.783406368148 -0.00416023259045 0)
(0.783609581099 -0.00422525624554 0)
(0.783811229744 -0.00428106924869 0)
(0.784010569872 -0.00432795834044 0)
(0.784206927085 -0.00436627768822 0)
(0.78439969948 -0.00439643634274 0)
(0.784588364753 -0.00441888729454 0)
(0.784772464562 -0.00443411164137 0)
(0.784951653001 -0.0044426257169 0)
(0.785125535474 -0.00444489339314 0)
(0.785294166694 -0.00444166225503 0)
(0.785456463446 -0.00443241311101 0)
(0.78561526262 -0.00442231469243 0)
(0.780001042731 -9.38175068323e-05 0)
(0.78000976949 -0.0002791008833 0)
(0.780027817029 -0.000460709374852 0)
(0.78005499688 -0.000640552843474 0)
(0.780090609571 -0.000819973826754 0)
(0.780134587581 -0.000999876395773 0)
(0.780187243913 -0.00118087682478 0)
(0.780248906596 -0.00136333898275 0)
(0.780319862717 -0.00154737587319 0)
(0.780400403846 -0.00173286824885 0)
(0.780490821041 -0.0019194938696 0)
(0.780591366109 -0.00210675482833 0)
(0.780702220572 -0.00229400220651 0)
(0.780823477858 -0.00248046128992 0)
(0.780955129898 -0.00266525843981 0)
(0.781097055171 -0.00284744906499 0)
(0.781249009959 -0.00302604601936 0)
(0.781410624361 -0.00320004789067 0)
(0.781581403042 -0.00336846662782 0)
(0.781760730409 -0.00353035369786 0)
(0.781947879847 -0.00368482407421 0)
(0.782142026699 -0.00383107722459 0)
(0.782342264326 -0.00396841460833 0)
(0.782547622528 -0.00409625310272 0)
(0.782757087416 -0.00421413423709 0)
(0.782969621911 -0.00432172901946 0)
(0.783184185942 -0.00441883866808 0)
(0.783399755656 -0.00450539139387 0)
(0.783615340866 -0.00458143589817 0)
(0.783830000396 -0.00464713197269 0)
(0.7840428546 -0.00470273903697 0)
(0.784253095889 -0.00474860315801 0)
(0.784459994128 -0.00478514302147 0)
(0.784662906661 -0.0048128368829 0)
(0.784861262786 -0.00483220416024 0)
(0.785054618883 -0.00484381240028 0)
(0.785242481164 -0.0048481766342 0)
(0.785424857394 -0.00484614185349 0)
(0.785600502253 -0.00483710997808 0)
(0.785772505552 -0.00482699522123 0)
(0.780000889427 -9.65788605924e-05 0)
(0.780008343301 -0.000287387124503 0)
(0.780023802877 -0.000474630284173 0)
(0.780047204506 -0.0006604181584 0)
(0.780078093159 -0.000846248457659 0)
(0.780116579026 -0.00103315162171 0)
(0.780163113236 -0.00122185560851 0)
(0.780218174312 -0.00141282180419 0)
(0.780282218527 -0.00160624339782 0)
(0.780355714131 -0.00180206224968 0)
(0.780439131635 -0.00199999695531 0)
(0.780532905456 -0.00219956848627 0)
(0.780637401965 -0.00240012296689 0)
(0.780752898361 -0.00260085538059 0)
(0.780879565058 -0.00280083563462 0)
(0.781017449357 -0.00299903652904 0)
(0.78116646233 -0.00319436310217 0)
(0.781326370389 -0.00338568286853 0)
(0.781496791953 -0.00357185640153 0)
(0.781677199058 -0.00375176739695 0)
(0.781866923947 -0.00392435129493 0)
(0.78206517035 -0.00408862149511 0)
(0.782271029038 -0.00424369231166 0)
(0.782483496843 -0.00438879791143 0)
(0.782701498311 -0.00452330671114 0)
(0.782923908932 -0.00464673089231 0)
(0.783149578959 -0.00475873099471 0)
(0.783377356789 -0.00485911572963 0)
(0.783606110993 -0.00494783744298 0)
(0.783834750323 -0.00502498375631 0)
(0.784062240803 -0.00509076610888 0)
(0.784287620532 -0.00514550601224 0)
(0.784510008734 -0.00518961941916 0)
(0.784728619492 -0.00522360176315 0)
(0.784942747148 -0.00524800642153 0)
(0.785151828638 -0.00526345172708 0)
(0.785355250836 -0.00527050532042 0)
(0.785552955703 -0.00527011876354 0)
(0.785743520875 -0.0052616036932 0)
(0.785930268743 -0.00525171288889 0)
(0.780000726034 -9.88135518762e-05 0)
(0.780006821819 -0.000294110594574 0)
(0.780019515604 -0.00048598592114 0)
(0.780038867765 -0.000676748219512 0)
(0.780064670573 -0.000868052311825 0)
(0.780097208491 -0.00106106042936 0)
(0.780137064671 -0.00125662094253 0)
(0.780184863455 -0.00145530454751 0)
(0.780241227965 -0.00165739925042 0)
(0.780306803213 -0.00186292511582 0)
(0.78038224229 -0.00207166054249 0)
(0.780468169174 -0.00228316544225 0)
(0.780565146408 -0.00249680120216 0)
(0.780673650883 -0.00271175184656 0)
(0.780794051962 -0.0029270481501 0)
(0.78092659053 -0.0031415944872 0)
(0.781071360854 -0.00335419801094 0)
(0.781228296917 -0.00356359992263 0)
(0.781397163791 -0.00376850827539 0)
(0.781577554448 -0.003967631508 0)
(0.781768892231 -0.00415971161674 0)
(0.78197043907 -0.00434355584299 0)
(0.782181309143 -0.00451806571964 0)
(0.782400487405 -0.00468226243087 0)
(0.78262685209 -0.00483530757874 0)
(0.782859200163 -0.00497651871392 0)
(0.783096274499 -0.00510537924045 0)
(0.783336791607 -0.00522154263937 0)
(0.783579468669 -0.00532483120808 0)
(0.783823048955 -0.00541522982802 0)
(0.784066324363 -0.00549287539058 0)
(0.784308155588 -0.00555804287581 0)
(0.784547485855 -0.00561112844818 0)
(0.78478335948 -0.00565263266532 0)
(0.785014909142 -0.00568313557586 0)
(0.785241426273 -0.00570330377498 0)
(0.785462153909 -0.00571375774583 0)
(0.785676944879 -0.00571556493076 0)
(0.785884181664 -0.00570793318407 0)
(0.786087392428 -0.00569855937329 0)
(0.78000055365 -0.000100527032164 0)
(0.780005215036 -0.000299285898908 0)
(0.780014982869 -0.000494795036486 0)
(0.780030039208 -0.000689557945303 0)
(0.780050423667 -0.000885386230961 0)
(0.780076588838 -0.0010835776123 0)
(0.780109241091 -0.0012851082643 0)
(0.780149142847 -0.00149066911158 0)
(0.780197078285 -0.00170065734164 0)
(0.780253865584 -0.00191518878583 0)
(0.780320339796 -0.00213412191449 0)
(0.780397317799 -0.00235707785026 0)
(0.780485566324 -0.00258345663049 0)
(0.780585775138 -0.00281245475169 0)
(0.780698531127 -0.00304308612414 0)
(0.78082429266 -0.00327420646065 0)
(0.780963366092 -0.00350454099153 0)
(0.781115886053 -0.00373271546011 0)
(0.78128180053 -0.00395729010122 0)
(0.781460861457 -0.00417679579282 0)
(0.781652621529 -0.00438977133272 0)
(0.781856437631 -0.00459480052327 0)
(0.782071480958 -0.00479054769844 0)
(0.782296753454 -0.00497579028675 0)
(0.78253110988 -0.00514944713318 0)
(0.782773284463 -0.00531060148946 0)
(0.783021920877 -0.0054585178985 0)
(0.783275604134 -0.0055926525195 0)
(0.783532892893 -0.0057126568339 0)
(0.783792350908 -0.00581837501138 0)
(0.78405257598 -0.00590983551605 0)
(0.784312226627 -0.00598723791978 0)
(0.784570041822 -0.00605093538956 0)
(0.784824865655 -0.00610141631676 0)
(0.785075637814 -0.00613927600414 0)
(0.785321473033 -0.00616522379699 0)
(0.785561440855 -0.0061799312585 0)
(0.785795276263 -0.00618459082654 0)
(0.786021144267 -0.00617829028632 0)
(0.786242745186 -0.00616979033675 0)
(0.780000373523 -0.000101728769693 0)
(0.780003534386 -0.000302939592216 0)
(0.780010236486 -0.000501096080587 0)
(0.780020779805 -0.000698889528148 0)
(0.780035448615 -0.000898285630556 0)
(0.780054854945 -0.00110071934528 0)
(0.780079817039 -0.00130730037999 0)
(0.780111224675 -0.00151884949979 0)
(0.780150013804 -0.00173588665342 0)
(0.780197168306 -0.00195864089157 0)
(0.780253700485 -0.00218707173162 0)
(0.780320619254 -0.00242088543545 0)
(0.780398899493 -0.0026595467886 0)
(0.780489453339 -0.00290229200978 0)
(0.780593100773 -0.00314814529658 0)
(0.780710539564 -0.0033959393305 0)
(0.780842316301 -0.00364433995614 0)
(0.780988800189 -0.0038918753688 0)
(0.781150160863 -0.0041369697469 0)
(0.781326351495 -0.00437798079781 0)
(0.781517098245 -0.00461324017471 0)
(0.781721897032 -0.00484109547929 0)
(0.781940018053 -0.0050599522549 0)
(0.782170518149 -0.00526831429186 0)
(0.782412260573 -0.00546482052916 0)
(0.782663941345 -0.00564827699632 0)
(0.782924120909 -0.00581768247956 0)
(0.783191259604 -0.00597224698209 0)
(0.783463755159 -0.00611140245337 0)
(0.783739980615 -0.00623480575023 0)
(0.78401832056 -0.00634233415573 0)
(0.784297205549 -0.00643407437967 0)
(0.784575139304 -0.00651030544772 0)
(0.784850731094 -0.00657147941907 0)
(0.785122691035 -0.00661818975061 0)
(0.785389920005 -0.0066511788138 0)
(0.785651278075 -0.00667116443305 0)
(0.785906347101 -0.006679472434 0)
(0.786153046726 -0.00667505054786 0)
(0.786395207895 -0.0066678592666 0)
(0.780000187023 -0.000102432102259 0)
(0.780001792432 -0.000305109783003 0)
(0.780005311581 -0.000504946700201 0)
(0.780011157341 -0.000704812050499 0)
(0.78001985339 -0.000906820526241 0)
(0.780032160208 -0.00111254396782 0)
(0.780048994284 -0.0013232293887 0)
(0.780071359247 -0.00153983528891 0)
(0.780100330131 -0.00176301664241 0)
(0.780137045137 -0.00199313243484 0)
(0.780182684763 -0.00223026422362 0)
(0.780238444475 -0.00247422829612 0)
(0.780305506496 -0.00272458235043 0)
(0.780385010217 -0.00298063288014 0)
(0.780478020154 -0.00324144612049 0)
(0.780585492081 -0.0035058631939 0)
(0.780708238898 -0.00377252006717 0)
(0.780846897752 -0.00403987307074 0)
(0.781001900001 -0.00430623035836 0)
(0.78117344563 -0.00456978905962 0)
(0.781361483788 -0.00482867739872 0)
(0.781565700805 -0.00508100051956 0)
(0.781785516831 -0.0053248884374 0)
(0.782020091638 -0.00555854416343 0)
(0.78226833972 -0.00578028993366 0)
(0.782528954156 -0.00598860944524 0)
(0.782800438207 -0.00618218419715 0)
(0.783081143134 -0.00635992234641 0)
(0.783369310309 -0.00652097895924 0)