    1C
    1UUSER                                                              
    1UDATE              06.may.2022                                     
    1UTIME              17:32:19                                        
    1UHOST                                                              
    1UPGM               CalculiX                                        
    1UVERSION           Version 2.16                             
    1UCOMPILETIME       Tue 20 Jul 2021 11:34:44 AM CDT                    
    1UDIR                                                               
    1UDBN                                                               
    1UMAT    1ACETATO                                                   
    2C                           244                                     1
 -1         1 6.60000E-02 2.99750E-02 1.60000E-01
 -1         2 6.54167E-02 2.99750E-02 1.60000E-01
 -1         3 6.48333E-02 2.99750E-02 1.60000E-01
 -1         4 6.42500E-02 2.99750E-02 1.60000E-01
 -1         5 6.36666E-02 2.99750E-02 1.60000E-01
 -1         6 6.30833E-02 2.99750E-02 1.60000E-01
 -1         7 6.25000E-02 2.99750E-02 1.60000E-01
 -1         8 6.19166E-02 2.99750E-02 1.60000E-01
 -1         9 6.13333E-02 2.99750E-02 1.60000E-01
 -1        10 6.07500E-02 2.99750E-02 1.60000E-01
 -1        11 6.01666E-02 2.99750E-02 1.60000E-01
 -1        12 5.95833E-02 2.99750E-02 1.60000E-01
 -1        13 5.90000E-02 2.99750E-02 1.60000E-01
 -1        14 5.84166E-02 2.99750E-02 1.60000E-01
 -1        15 5.78333E-02 2.99750E-02 1.60000E-01
 -1        16 5.72499E-02 2.99750E-02 1.60000E-01
 -1        17 5.66666E-02 2.99750E-02 1.60000E-01
 -1        18 5.60833E-02 2.99750E-02 1.60000E-01
 -1        19 5.54999E-02 2.99750E-02 1.60000E-01
 -1        20 5.49166E-02 2.99750E-02 1.60000E-01
 -1        21 5.43333E-02 2.99750E-02 1.60000E-01
 -1        22 5.37499E-02 2.99750E-02 1.60000E-01
 -1        23 5.31666E-02 2.99750E-02 1.60000E-01
 -1        24 5.25833E-02 2.99750E-02 1.60000E-01
 -1        25 5.19999E-02 2.99750E-02 1.60000E-01
 -1        26 5.14166E-02 2.99750E-02 1.60000E-01
 -1        27 5.08332E-02 2.99750E-02 1.60000E-01
 -1        28 5.02499E-02 2.99750E-02 1.60000E-01
 -1        29 4.96666E-02 2.99750E-02 1.60000E-01
 -1        30 4.90832E-02 2.99750E-02 1.60000E-01
 -1        31 4.84999E-02 2.99750E-02 1.60000E-01
 -1        32 4.79166E-02 2.99750E-02 1.60000E-01
 -1        33 4.73332E-02 2.99750E-02 1.60000E-01
 -1        34 4.67499E-02 2.99750E-02 1.60000E-01
 -1        35 4.61665E-02 2.99750E-02 1.60000E-01
 -1        36 4.55832E-02 2.99750E-02 1.60000E-01
 -1        37 4.49999E-02 2.99750E-02 1.60000E-01
 -1        38 4.44165E-02 2.99750E-02 1.60000E-01
 -1        39 4.38332E-02 2.99750E-02 1.60000E-01
 -1        40 4.32499E-02 2.99750E-02 1.60000E-01
 -1        41 4.26665E-02 2.99750E-02 1.60000E-01
 -1        42 4.20832E-02 2.99750E-02 1.60000E-01
 -1        43 4.14999E-02 2.99750E-02 1.60000E-01
 -1        44 4.09165E-02 2.99750E-02 1.60000E-01
 -1        45 4.03332E-02 2.99750E-02 1.60000E-01
 -1        46 3.97498E-02 2.99750E-02 1.60000E-01
 -1        47 3.91665E-02 2.99750E-02 1.60000E-01
 -1        48 3.85832E-02 2.99750E-02 1.60000E-01
 -1        49 3.79998E-02 2.99750E-02 1.60000E-01
 -1        50 3.74165E-02 2.99750E-02 1.60000E-01
 -1        51 3.68332E-02 2.99750E-02 1.60000E-01
 -1        52 3.62498E-02 2.99750E-02 1.60000E-01
 -1        53 3.56665E-02 2.99750E-02 1.60000E-01
 -1        54 3.50831E-02 2.99750E-02 1.60000E-01
 -1        55 3.44998E-02 2.99750E-02 1.60000E-01
 -1        56 3.39165E-02 2.99750E-02 1.60000E-01
 -1        57 3.33331E-02 2.99750E-02 1.60000E-01
 -1        58 3.27498E-02 2.99750E-02 1.60000E-01
 -1        59 3.21665E-02 2.99750E-02 1.60000E-01
 -1        60 3.15831E-02 2.99750E-02 1.60000E-01
 -1        61 3.09998E-02 2.99750E-02 1.60000E-01
 -1        62 6.60000E-02 2.99750E-02 0.00000E+00
 -1        63 6.54167E-02 2.99750E-02 0.00000E+00
 -1        64 6.48333E-02 2.99750E-02 0.00000E+00
 -1        65 6.42500E-02 2.99750E-02 0.00000E+00
 -1        66 6.36666E-02 2.99750E-02 0.00000E+00
 -1        67 6.30833E-02 2.99750E-02 0.00000E+00
 -1        68 6.25000E-02 2.99750E-02 0.00000E+00
 -1        69 6.19166E-02 2.99750E-02 0.00000E+00
 -1        70 6.13333E-02 2.99750E-02 0.00000E+00
 -1        71 6.07500E-02 2.99750E-02 0.00000E+00
 -1        72 6.01666E-02 2.99750E-02 0.00000E+00
 -1        73 5.95833E-02 2.99750E-02 0.00000E+00
 -1        74 5.90000E-02 2.99750E-02 0.00000E+00
 -1        75 5.84166E-02 2.99750E-02 0.00000E+00
 -1        76 5.78333E-02 2.99750E-02 0.00000E+00
 -1        77 5.72499E-02 2.99750E-02 0.00000E+00
 -1        78 5.66666E-02 2.99750E-02 0.00000E+00
 -1        79 5.60833E-02 2.99750E-02 0.00000E+00
 -1        80 5.54999E-02 2.99750E-02 0.00000E+00
 -1        81 5.49166E-02 2.99750E-02 0.00000E+00
 -1        82 5.43333E-02 2.99750E-02 0.00000E+00
 -1        83 5.37499E-02 2.99750E-02 0.00000E+00
 -1        84 5.31666E-02 2.99750E-02 0.00000E+00
 -1        85 5.25833E-02 2.99750E-02 0.00000E+00
 -1        86 5.19999E-02 2.99750E-02 0.00000E+00
 -1        87 5.14166E-02 2.99750E-02 0.00000E+00
 -1        88 5.08332E-02 2.99750E-02 0.00000E+00
 -1        89 5.02499E-02 2.99750E-02 0.00000E+00
 -1        90 4.96666E-02 2.99750E-02 0.00000E+00
 -1        91 4.90832E-02 2.99750E-02 0.00000E+00
 -1        92 4.84999E-02 2.99750E-02 0.00000E+00
 -1        93 4.79166E-02 2.99750E-02 0.00000E+00
 -1        94 4.73332E-02 2.99750E-02 0.00000E+00
 -1        95 4.67499E-02 2.99750E-02 0.00000E+00
 -1        96 4.61665E-02 2.99750E-02 0.00000E+00
 -1        97 4.55832E-02 2.99750E-02 0.00000E+00
 -1        98 4.49999E-02 2.99750E-02 0.00000E+00
 -1        99 4.44165E-02 2.99750E-02 0.00000E+00
 -1       100 4.38332E-02 2.99750E-02 0.00000E+00
 -1       101 4.32499E-02 2.99750E-02 0.00000E+00
 -1       102 4.26665E-02 2.99750E-02 0.00000E+00
 -1       103 4.20832E-02 2.99750E-02 0.00000E+00
 -1       104 4.14999E-02 2.99750E-02 0.00000E+00
 -1       105 4.09165E-02 2.99750E-02 0.00000E+00
 -1       106 4.03332E-02 2.99750E-02 0.00000E+00
 -1       107 3.97498E-02 2.99750E-02 0.00000E+00
 -1       108 3.91665E-02 2.99750E-02 0.00000E+00
 -1       109 3.85832E-02 2.99750E-02 0.00000E+00
 -1       110 3.79998E-02 2.99750E-02 0.00000E+00
 -1       111 3.74165E-02 2.99750E-02 0.00000E+00
 -1       112 3.68332E-02 2.99750E-02 0.00000E+00
 -1       113 3.62498E-02 2.99750E-02 0.00000E+00
 -1       114 3.56665E-02 2.99750E-02 0.00000E+00
 -1       115 3.50831E-02 2.99750E-02 0.00000E+00
 -1       116 3.44998E-02 2.99750E-02 0.00000E+00
 -1       117 3.39165E-02 2.99750E-02 0.00000E+00
 -1       118 3.33331E-02 2.99750E-02 0.00000E+00
 -1       119 3.27498E-02 2.99750E-02 0.00000E+00
 -1       120 3.21665E-02 2.99750E-02 0.00000E+00
 -1       121 3.15831E-02 2.99750E-02 0.00000E+00
 -1       122 3.09998E-02 2.99750E-02 0.00000E+00
 -1       123 6.60000E-02 3.00250E-02 1.60000E-01
 -1       124 6.54167E-02 3.00250E-02 1.60000E-01
 -1       125 6.48333E-02 3.00250E-02 1.60000E-01
 -1       126 6.42500E-02 3.00250E-02 1.60000E-01
 -1       127 6.36666E-02 3.00250E-02 1.60000E-01
 -1       128 6.30833E-02 3.00250E-02 1.60000E-01
 -1       129 6.25000E-02 3.00250E-02 1.60000E-01
 -1       130 6.19166E-02 3.00250E-02 1.60000E-01
 -1       131 6.13333E-02 3.00250E-02 1.60000E-01
 -1       132 6.07500E-02 3.00250E-02 1.60000E-01
 -1       133 6.01666E-02 3.00250E-02 1.60000E-01
 -1       134 5.95833E-02 3.00250E-02 1.60000E-01
 -1       135 5.90000E-02 3.00250E-02 1.60000E-01
 -1       136 5.84166E-02 3.00250E-02 1.60000E-01
 -1       137 5.78333E-02 3.00250E-02 1.60000E-01
 -1       138 5.72499E-02 3.00250E-02 1.60000E-01
 -1       139 5.66666E-02 3.00250E-02 1.60000E-01
 -1       140 5.60833E-02 3.00250E-02 1.60000E-01
 -1       141 5.54999E-02 3.00250E-02 1.60000E-01
 -1       142 5.49166E-02 3.00250E-02 1.60000E-01
 -1       143 5.43333E-02 3.00250E-02 1.60000E-01
 -1       144 5.37499E-02 3.00250E-02 1.60000E-01
 -1       145 5.31666E-02 3.00250E-02 1.60000E-01
 -1       146 5.25833E-02 3.00250E-02 1.60000E-01
 -1       147 5.19999E-02 3.00250E-02 1.60000E-01
 -1       148 5.14166E-02 3.00250E-02 1.60000E-01
 -1       149 5.08332E-02 3.00250E-02 1.60000E-01
 -1       150 5.02499E-02 3.00250E-02 1.60000E-01
 -1       151 4.96666E-02 3.00250E-02 1.60000E-01
 -1       152 4.90832E-02 3.00250E-02 1.60000E-01
 -1       153 4.84999E-02 3.00250E-02 1.60000E-01
 -1       154 4.79166E-02 3.00250E-02 1.60000E-01
 -1       155 4.73332E-02 3.00250E-02 1.60000E-01
 -1       156 4.67499E-02 3.00250E-02 1.60000E-01
 -1       157 4.61665E-02 3.00250E-02 1.60000E-01
 -1       158 4.55832E-02 3.00250E-02 1.60000E-01
 -1       159 4.49999E-02 3.00250E-02 1.60000E-01
 -1       160 4.44165E-02 3.00250E-02 1.60000E-01
 -1       161 4.38332E-02 3.00250E-02 1.60000E-01
 -1       162 4.32499E-02 3.00250E-02 1.60000E-01
 -1       163 4.26665E-02 3.00250E-02 1.60000E-01
 -1       164 4.20832E-02 3.00250E-02 1.60000E-01
 -1       165 4.14999E-02 3.00250E-02 1.60000E-01
 -1       166 4.09165E-02 3.00250E-02 1.60000E-01
 -1       167 4.03332E-02 3.00250E-02 1.60000E-01
 -1       168 3.97498E-02 3.00250E-02 1.60000E-01
 -1       169 3.91665E-02 3.00250E-02 1.60000E-01
 -1       170 3.85832E-02 3.00250E-02 1.60000E-01
 -1       171 3.79998E-02 3.00250E-02 1.60000E-01
 -1       172 3.74165E-02 3.00250E-02 1.60000E-01
 -1       173 3.68332E-02 3.00250E-02 1.60000E-01
 -1       174 3.62498E-02 3.00250E-02 1.60000E-01
 -1       175 3.56665E-02 3.00250E-02 1.60000E-01
 -1       176 3.50831E-02 3.00250E-02 1.60000E-01
 -1       177 3.44998E-02 3.00250E-02 1.60000E-01
 -1       178 3.39165E-02 3.00250E-02 1.60000E-01
 -1       179 3.33331E-02 3.00250E-02 1.60000E-01
 -1       180 3.27498E-02 3.00250E-02 1.60000E-01
 -1       181 3.21665E-02 3.00250E-02 1.60000E-01
 -1       182 3.15831E-02 3.00250E-02 1.60000E-01
 -1       183 3.09998E-02 3.00250E-02 1.60000E-01
 -1       184 6.60000E-02 3.00250E-02 0.00000E+00
 -1       185 6.54167E-02 3.00250E-02 0.00000E+00
 -1       186 6.48333E-02 3.00250E-02 0.00000E+00
 -1       187 6.42500E-02 3.00250E-02 0.00000E+00
 -1       188 6.36666E-02 3.00250E-02 0.00000E+00
 -1       189 6.30833E-02 3.00250E-02 0.00000E+00
 -1       190 6.25000E-02 3.00250E-02 0.00000E+00
 -1       191 6.19166E-02 3.00250E-02 0.00000E+00
 -1       192 6.13333E-02 3.00250E-02 0.00000E+00
 -1       193 6.07500E-02 3.00250E-02 0.00000E+00
 -1       194 6.01666E-02 3.00250E-02 0.00000E+00
 -1       195 5.95833E-02 3.00250E-02 0.00000E+00
 -1       196 5.90000E-02 3.00250E-02 0.00000E+00
 -1       197 5.84166E-02 3.00250E-02 0.00000E+00
 -1       198 5.78333E-02 3.00250E-02 0.00000E+00
 -1       199 5.72499E-02 3.00250E-02 0.00000E+00
 -1       200 5.66666E-02 3.00250E-02 0.00000E+00
 -1       201 5.60833E-02 3.00250E-02 0.00000E+00
 -1       202 5.54999E-02 3.00250E-02 0.00000E+00
 -1       203 5.49166E-02 3.00250E-02 0.00000E+00
 -1       204 5.43333E-02 3.00250E-02 0.00000E+00
 -1       205 5.37499E-02 3.00250E-02 0.00000E+00
 -1       206 5.31666E-02 3.00250E-02 0.00000E+00
 -1       207 5.25833E-02 3.00250E-02 0.00000E+00
 -1       208 5.19999E-02 3.00250E-02 0.00000E+00
 -1       209 5.14166E-02 3.00250E-02 0.00000E+00
 -1       210 5.08332E-02 3.00250E-02 0.00000E+00
 -1       211 5.02499E-02 3.00250E-02 0.00000E+00
 -1       212 4.96666E-02 3.00250E-02 0.00000E+00
 -1       213 4.90832E-02 3.00250E-02 0.00000E+00
 -1       214 4.84999E-02 3.00250E-02 0.00000E+00
 -1       215 4.79166E-02 3.00250E-02 0.00000E+00
 -1       216 4.73332E-02 3.00250E-02 0.00000E+00
 -1       217 4.67499E-02 3.00250E-02 0.00000E+00
 -1       218 4.61665E-02 3.00250E-02 0.00000E+00
 -1       219 4.55832E-02 3.00250E-02 0.00000E+00
 -1       220 4.49999E-02 3.00250E-02 0.00000E+00
 -1       221 4.44165E-02 3.00250E-02 0.00000E+00
 -1       222 4.38332E-02 3.00250E-02 0.00000E+00
 -1       223 4.32499E-02 3.00250E-02 0.00000E+00
 -1       224 4.26665E-02 3.00250E-02 0.00000E+00
 -1       225 4.20832E-02 3.00250E-02 0.00000E+00
 -1       226 4.14999E-02 3.00250E-02 0.00000E+00
 -1       227 4.09165E-02 3.00250E-02 0.00000E+00
 -1       228 4.03332E-02 3.00250E-02 0.00000E+00
 -1       229 3.97498E-02 3.00250E-02 0.00000E+00
 -1       230 3.91665E-02 3.00250E-02 0.00000E+00
 -1       231 3.85832E-02 3.00250E-02 0.00000E+00
 -1       232 3.79998E-02 3.00250E-02 0.00000E+00
 -1       233 3.74165E-02 3.00250E-02 0.00000E+00
 -1       234 3.68332E-02 3.00250E-02 0.00000E+00
 -1       235 3.62498E-02 3.00250E-02 0.00000E+00
 -1       236 3.56665E-02 3.00250E-02 0.00000E+00
 -1       237 3.50831E-02 3.00250E-02 0.00000E+00
 -1       238 3.44998E-02 3.00250E-02 0.00000E+00
 -1       239 3.39165E-02 3.00250E-02 0.00000E+00
 -1       240 3.33331E-02 3.00250E-02 0.00000E+00
 -1       241 3.27498E-02 3.00250E-02 0.00000E+00
 -1       242 3.21665E-02 3.00250E-02 0.00000E+00
 -1       243 3.15831E-02 3.00250E-02 0.00000E+00
 -1       244 3.09998E-02 3.00250E-02 0.00000E+00
 -3
    3C                            60                                     1
 -1         1    1    0    1
 -2       123       124       185       184         1         2        63        62
 -1         2    1    0    1
 -2       124       125       186       185         2         3        64        63
 -1         3    1    0    1
 -2       125       126       187       186         3         4        65        64
 -1         4    1    0    1
 -2       126       127       188       187         4         5        66        65
 -1         5    1    0    1
 -2       127       128       189       188         5         6        67        66
 -1         6    1    0    1
 -2       128       129       190       189         6         7        68        67
 -1         7    1    0    1
 -2       129       130       191       190         7         8        69        68
 -1         8    1    0    1
 -2       130       131       192       191         8         9        70        69
 -1         9    1    0    1
 -2       131       132       193       192         9        10        71        70
 -1        10    1    0    1
 -2       132       133       194       193        10        11        72        71
 -1        11    1    0    1
 -2       133       134       195       194        11        12        73        72
 -1        12    1    0    1
 -2       134       135       196       195        12        13        74        73
 -1        13    1    0    1
 -2       135       136       197       196        13        14        75        74
 -1        14    1    0    1
 -2       136       137       198       197        14        15        76        75
 -1        15    1    0    1
 -2       137       138       199       198        15        16        77        76
 -1        16    1    0    1
 -2       138       139       200       199        16        17        78        77
 -1        17    1    0    1
 -2       139       140       201       200        17        18        79        78
 -1        18    1    0    1
 -2       140       141       202       201        18        19        80        79
 -1        19    1    0    1
 -2       141       142       203       202        19        20        81        80
 -1        20    1    0    1
 -2       142       143       204       203        20        21        82        81
 -1        21    1    0    1
 -2       143       144       205       204        21        22        83        82
 -1        22    1    0    1
 -2       144       145       206       205        22        23        84        83
 -1        23    1    0    1
 -2       145       146       207       206        23        24        85        84
 -1        24    1    0    1
 -2       146       147       208       207        24        25        86        85
 -1        25    1    0    1
 -2       147       148       209       208        25        26        87        86
 -1        26    1    0    1
 -2       148       149       210       209        26        27        88        87
 -1        27    1    0    1
 -2       149       150       211       210        27        28        89        88
 -1        28    1    0    1
 -2       150       151       212       211        28        29        90        89
 -1        29    1    0    1
 -2       151       152       213       212        29        30        91        90
 -1        30    1    0    1
 -2       152       153       214       213        30        31        92        91
 -1        31    1    0    1
 -2       153       154       215       214        31        32        93        92
 -1        32    1    0    1
 -2       154       155       216       215        32        33        94        93
 -1        33    1    0    1
 -2       155       156       217       216        33        34        95        94
 -1        34    1    0    1
 -2       156       157       218       217        34        35        96        95
 -1        35    1    0    1
 -2       157       158       219       218        35        36        97        96
 -1        36    1    0    1
 -2       158       159       220       219        36        37        98        97
 -1        37    1    0    1
 -2       159       160       221       220        37        38        99        98
 -1        38    1    0    1
 -2       160       161       222       221        38        39       100        99
 -1        39    1    0    1
 -2       161       162       223       222        39        40       101       100
 -1        40    1    0    1
 -2       162       163       224       223        40        41       102       101
 -1        41    1    0    1
 -2       163       164       225       224        41        42       103       102
 -1        42    1    0    1
 -2       164       165       226       225        42        43       104       103
 -1        43    1    0    1
 -2       165       166       227       226        43        44       105       104
 -1        44    1    0    1
 -2       166       167       228       227        44        45       106       105
 -1        45    1    0    1
 -2       167       168       229       228        45        46       107       106
 -1        46    1    0    1
 -2       168       169       230       229        46        47       108       107
 -1        47    1    0    1
 -2       169       170       231       230        47        48       109       108
 -1        48    1    0    1
 -2       170       171       232       231        48        49       110       109
 -1        49    1    0    1
 -2       171       172       233       232        49        50       111       110
 -1        50    1    0    1
 -2       172       173       234       233        50        51       112       111
 -1        51    1    0    1
 -2       173       174       235       234        51        52       113       112
 -1        52    1    0    1
 -2       174       175       236       235        52        53       114       113
 -1        53    1    0    1
 -2       175       176       237       236        53        54       115       114
 -1        54    1    0    1
 -2       176       177       238       237        54        55       116       115
 -1        55    1    0    1
 -2       177       178       239       238        55        56       117       116
 -1        56    1    0    1
 -2       178       179       240       239        56        57       118       117
 -1        57    1    0    1
 -2       179       180       241       240        57        58       119       118
 -1        58    1    0    1
 -2       180       181       242       241        58        59       120       119
 -1        59    1    0    1
 -2       181       182       243       242        59        60       121       120
 -1        60    1    0    1
 -2       182       183       244       243        60        61       122       121
 -3
    1PSTEP                         1           1           1          
    1PGM                1.000000E+00                                  
    1PGK                6.933988E+03                                  
    1PHID                         -1                                  
    1PSUBC                         0                                  
    1PMODE                         1                                  
  100CL  101 13.25292329         244                     2    1MODAL      1
 -4  DISP        4    1
 -5  D1          1    2    1    0
 -5  D2          1    2    2    0
 -5  D3          1    2    3    0
 -5  ALL         1    2    0    0    1ALL
 -1         1 9.96843E-02 1.01380E+02 0.00000E+00
 -1         2 9.96836E-02 9.90541E+01 0.00000E+00
 -1         3 9.96788E-02 9.67281E+01 0.00000E+00
 -1         4 9.96659E-02 9.44024E+01 0.00000E+00
 -1         5 9.96411E-02 9.20771E+01 0.00000E+00
 -1         6 9.96004E-02 8.97525E+01 0.00000E+00
 -1         7 9.95402E-02 8.74292E+01 0.00000E+00
 -1         8 9.94568E-02 8.51075E+01 0.00000E+00
 -1         9 9.93468E-02 8.27880E+01 0.00000E+00
 -1        10 9.92067E-02 8.04715E+01 0.00000E+00
 -1        11 9.90331E-02 7.81587E+01 0.00000E+00
 -1        12 9.88228E-02 7.58503E+01 0.00000E+00
 -1        13 9.85727E-02 7.35473E+01 0.00000E+00
 -1        14 9.82797E-02 7.12506E+01 0.00000E+00
 -1        15 9.79408E-02 6.89613E+01 0.00000E+00
 -1        16 9.75533E-02 6.66805E+01 0.00000E+00
 -1        17 9.71142E-02 6.44093E+01 0.00000E+00
 -1        18 9.66210E-02 6.21490E+01 0.00000E+00
 -1        19 9.60710E-02 5.99008E+01 0.00000E+00
 -1        20 9.54618E-02 5.76662E+01 0.00000E+00
 -1        21 9.47909E-02 5.54466E+01 0.00000E+00
 -1        22 9.40560E-02 5.32433E+01 0.00000E+00
 -1        23 9.32550E-02 5.10579E+01 0.00000E+00
 -1        24 9.23856E-02 4.88921E+01 0.00000E+00
 -1        25 9.14458E-02 4.67473E+01 0.00000E+00
 -1        26 9.04338E-02 4.46253E+01 0.00000E+00
 -1        27 8.93476E-02 4.25278E+01 0.00000E+00
 -1        28 8.81853E-02 4.04565E+01 0.00000E+00
 -1        29 8.69455E-02 3.84133E+01 0.00000E+00
 -1        30 8.56263E-02 3.63999E+01 0.00000E+00
 -1        31 8.42263E-02 3.44182E+01 0.00000E+00
 -1        32 8.27441E-02 3.24702E+01 0.00000E+00
 -1        33 8.11783E-02 3.05577E+01 0.00000E+00
 -1        34 7.95275E-02 2.86828E+01 0.00000E+00
 -1        35 7.77907E-02 2.68473E+01 0.00000E+00
 -1        36 7.59665E-02 2.50534E+01 0.00000E+00
 -1        37 7.40541E-02 2.33031E+01 0.00000E+00
 -1        38 7.20523E-02 2.15985E+01 0.00000E+00
 -1        39 6.99603E-02 1.99417E+01 0.00000E+00
 -1        40 6.77773E-02 1.83347E+01 0.00000E+00
 -1        41 6.55024E-02 1.67797E+01 0.00000E+00
 -1        42 6.31349E-02 1.52789E+01 0.00000E+00
 -1        43 6.06742E-02 1.38344E+01 0.00000E+00
 -1        44 5.81197E-02 1.24484E+01 0.00000E+00
 -1        45 5.54708E-02 1.11232E+01 0.00000E+00
 -1        46 5.27271E-02 9.86083E+00 0.00000E+00
 -1        47 4.98881E-02 8.66362E+00 0.00000E+00
 -1        48 4.69534E-02 7.53377E+00 0.00000E+00
 -1        49 4.39228E-02 6.47351E+00 0.00000E+00
 -1        50 4.07959E-02 5.48510E+00 0.00000E+00
 -1        51 3.75724E-02 4.57078E+00 0.00000E+00
 -1        52 3.42523E-02 3.73279E+00 0.00000E+00
 -1        53 3.08353E-02 2.97342E+00 0.00000E+00
 -1        54 2.73212E-02 2.29490E+00 0.00000E+00
 -1        55 2.37100E-02 1.69951E+00 0.00000E+00
 -1        56 2.00016E-02 1.18953E+00 0.00000E+00
 -1        57 1.61960E-02 7.67208E-01 0.00000E+00
 -1        58 1.22930E-02 4.34823E-01 0.00000E+00
 -1        59 8.29268E-03 1.94645E-01 0.00000E+00
 -1        60 4.19502E-03 4.89475E-02 0.00000E+00
 -1        61 0.00000E+00 0.00000E+00 0.00000E+00
 -1        62 9.96843E-02 1.01380E+02 0.00000E+00
 -1        63 9.96836E-02 9.90541E+01 0.00000E+00
 -1        64 9.96788E-02 9.67281E+01 0.00000E+00
 -1        65 9.96659E-02 9.44024E+01 0.00000E+00
 -1        66 9.96411E-02 9.20771E+01 0.00000E+00
 -1        67 9.96004E-02 8.97525E+01 0.00000E+00
 -1        68 9.95402E-02 8.74292E+01 0.00000E+00
 -1        69 9.94568E-02 8.51075E+01 0.00000E+00
 -1        70 9.93468E-02 8.27880E+01 0.00000E+00
 -1        71 9.92067E-02 8.04715E+01 0.00000E+00
 -1        72 9.90331E-02 7.81587E+01 0.00000E+00
 -1        73 9.88228E-02 7.58503E+01 0.00000E+00
 -1        74 9.85727E-02 7.35473E+01 0.00000E+00
 -1        75 9.82797E-02 7.12506E+01 0.00000E+00
 -1        76 9.79408E-02 6.89613E+01 0.00000E+00
 -1        77 9.75533E-02 6.66805E+01 0.00000E+00
 -1        78 9.71142E-02 6.44093E+01 0.00000E+00
 -1        79 9.66210E-02 6.21490E+01 0.00000E+00
 -1        80 9.60710E-02 5.99008E+01 0.00000E+00
 -1        81 9.54618E-02 5.76662E+01 0.00000E+00
 -1        82 9.47909E-02 5.54466E+01 0.00000E+00
 -1        83 9.40560E-02 5.32433E+01 0.00000E+00
 -1        84 9.32550E-02 5.10579E+01 0.00000E+00
 -1        85 9.23856E-02 4.88921E+01 0.00000E+00
 -1        86 9.14458E-02 4.67473E+01 0.00000E+00
 -1        87 9.04338E-02 4.46253E+01 0.00000E+00
 -1        88 8.93476E-02 4.25278E+01 0.00000E+00
 -1        89 8.81853E-02 4.04565E+01 0.00000E+00
 -1        90 8.69455E-02 3.84133E+01 0.00000E+00
 -1        91 8.56263E-02 3.63999E+01 0.00000E+00
 -1        92 8.42263E-02 3.44182E+01 0.00000E+00
 -1        93 8.27441E-02 3.24702E+01 0.00000E+00
 -1        94 8.11783E-02 3.05577E+01 0.00000E+00
 -1        95 7.95275E-02 2.86828E+01 0.00000E+00
 -1        96 7.77907E-02 2.68473E+01 0.00000E+00
 -1        97 7.59665E-02 2.50534E+01 0.00000E+00
 -1        98 7.40541E-02 2.33031E+01 0.00000E+00
 -1        99 7.20523E-02 2.15985E+01 0.00000E+00
 -1       100 6.99603E-02 1.99417E+01 0.00000E+00
 -1       101 6.77773E-02 1.83347E+01 0.00000E+00
 -1       102 6.55024E-02 1.67797E+01 0.00000E+00
 -1       103 6.31349E-02 1.52789E+01 0.00000E+00
 -1       104 6.06742E-02 1.38344E+01 0.00000E+00
 -1       105 5.81197E-02 1.24484E+01 0.00000E+00
 -1       106 5.54708E-02 1.11232E+01 0.00000E+00
 -1       107 5.27271E-02 9.86083E+00 0.00000E+00
 -1       108 4.98881E-02 8.66362E+00 0.00000E+00
 -1       109 4.69534E-02 7.53377E+00 0.00000E+00
 -1       110 4.39228E-02 6.47351E+00 0.00000E+00
 -1       111 4.07959E-02 5.48510E+00 0.00000E+00
 -1       112 3.75724E-02 4.57078E+00 0.00000E+00
 -1       113 3.42523E-02 3.73279E+00 0.00000E+00
 -1       114 3.08353E-02 2.97342E+00 0.00000E+00
 -1       115 2.73212E-02 2.29490E+00 0.00000E+00
 -1       116 2.37100E-02 1.69951E+00 0.00000E+00
 -1       117 2.00016E-02 1.18953E+00 0.00000E+00
 -1       118 1.61960E-02 7.67208E-01 0.00000E+00
 -1       119 1.22930E-02 4.34823E-01 0.00000E+00
 -1       120 8.29268E-03 1.94645E-01 0.00000E+00
 -1       121 4.19502E-03 4.89475E-02 0.00000E+00
 -1       122 0.00000E+00 0.00000E+00 0.00000E+00
 -1       123-9.96843E-02 1.01380E+02 0.00000E+00
 -1       124-9.96836E-02 9.90541E+01 0.00000E+00
 -1       125-9.96788E-02 9.67281E+01 0.00000E+00
 -1       126-9.96659E-02 9.44024E+01 0.00000E+00
 -1       127-9.96411E-02 9.20771E+01 0.00000E+00
 -1       128-9.96004E-02 8.97525E+01 0.00000E+00
 -1       129-9.95402E-02 8.74292E+01 0.00000E+00
 -1       130-9.94568E-02 8.51075E+01 0.00000E+00
 -1       131-9.93468E-02 8.27880E+01 0.00000E+00
 -1       132-9.92067E-02 8.04715E+01 0.00000E+00
 -1       133-9.90331E-02 7.81587E+01 0.00000E+00
 -1       134-9.88228E-02 7.58503E+01 0.00000E+00
 -1       135-9.85727E-02 7.35473E+01 0.00000E+00
 -1       136-9.82797E-02 7.12506E+01 0.00000E+00
 -1       137-9.79408E-02 6.89613E+01 0.00000E+00
 -1       138-9.75533E-02 6.66805E+01 0.00000E+00
 -1       139-9.71142E-02 6.44093E+01 0.00000E+00
 -1       140-9.66210E-02 6.21490E+01 0.00000E+00
 -1       141-9.60710E-02 5.99008E+01 0.00000E+00
 -1       142-9.54618E-02 5.76662E+01 0.00000E+00
 -1       143-9.47909E-02 5.54466E+01 0.00000E+00
 -1       144-9.40560E-02 5.32433E+01 0.00000E+00
 -1       145-9.32550E-02 5.10579E+01 0.00000E+00
 -1       146-9.23856E-02 4.88921E+01 0.00000E+00
 -1       147-9.14458E-02 4.67473E+01 0.00000E+00
 -1       148-9.04338E-02 4.46253E+01 0.00000E+00
 -1       149-8.93476E-02 4.25278E+01 0.00000E+00
 -1       150-8.81853E-02 4.04565E+01 0.00000E+00
 -1       151-8.69455E-02 3.84133E+01 0.00000E+00
 -1       152-8.56263E-02 3.63999E+01 0.00000E+00
 -1       153-8.42263E-02 3.44182E+01 0.00000E+00
 -1       154-8.27441E-02 3.24702E+01 0.00000E+00
 -1       155-8.11783E-02 3.05577E+01 0.00000E+00
 -1       156-7.95275E-02 2.86828E+01 0.00000E+00
 -1       157-7.77907E-02 2.68473E+01 0.00000E+00
 -1       158-7.59665E-02 2.50534E+01 0.00000E+00
 -1       159-7.40541E-02 2.33031E+01 0.00000E+00
 -1       160-7.20523E-02 2.15985E+01 0.00000E+00
 -1       161-6.99603E-02 1.99417E+01 0.00000E+00
 -1       162-6.77773E-02 1.83347E+01 0.00000E+00
 -1       163-6.55024E-02 1.67797E+01 0.00000E+00
 -1       164-6.31349E-02 1.52789E+01 0.00000E+00
 -1       165-6.06742E-02 1.38344E+01 0.00000E+00
 -1       166-5.81197E-02 1.24484E+01 0.00000E+00
 -1       167-5.54708E-02 1.11232E+01 0.00000E+00
 -1       168-5.27271E-02 9.86083E+00 0.00000E+00
 -1       169-4.98881E-02 8.66362E+00 0.00000E+00
 -1       170-4.69534E-02 7.53377E+00 0.00000E+00
 -1       171-4.39228E-02 6.47351E+00 0.00000E+00
 -1       172-4.07959E-02 5.48510E+00 0.00000E+00
 -1       173-3.75724E-02 4.57078E+00 0.00000E+00
 -1       174-3.42523E-02 3.73279E+00 0.00000E+00
 -1       175-3.08353E-02 2.97342E+00 0.00000E+00
 -1       176-2.73212E-02 2.29490E+00 0.00000E+00
 -1       177-2.37100E-02 1.69951E+00 0.00000E+00
 -1       178-2.00016E-02 1.18953E+00 0.00000E+00
 -1       179-1.61960E-02 7.67208E-01 0.00000E+00
 -1       180-1.22930E-02 4.34823E-01 0.00000E+00
 -1       181-8.29268E-03 1.94645E-01 0.00000E+00
 -1       182-4.19502E-03 4.89475E-02 0.00000E+00
 -1       183 0.00000E+00 0.00000E+00 0.00000E+00
 -1       184-9.96843E-02 1.01380E+02 0.00000E+00
 -1       185-9.96836E-02 9.90541E+01 0.00000E+00
 -1       186-9.96788E-02 9.67281E+01 0.00000E+00
 -1       187-9.96659E-02 9.44024E+01 0.00000E+00
 -1       188-9.96411E-02 9.20771E+01 0.00000E+00
 -1       189-9.96004E-02 8.97525E+01 0.00000E+00