    1C
    1UUSER                                                              
    1UDATE              06.may.2022                                     
    1UTIME              16:50:44                                        
    1UHOST                                                              
    1UPGM               CalculiX                                        
    1UVERSION           Version 2.16                             
    1UCOMPILETIME       Tue 20 Jul 2021 11:34:44 AM CDT                    
    1UDIR                                                               
    1UDBN                                                               
    1UMAT    1ACETATO                                                   
    2C                            52                                     1
 -1         1 6.60000E-02 2.99750E-02 1.60000E-01
 -1         2 6.30833E-02 2.99750E-02 1.60000E-01
 -1         3 6.01666E-02 2.99750E-02 1.60000E-01
 -1         4 5.72499E-02 2.99750E-02 1.60000E-01
 -1         5 5.43333E-02 2.99750E-02 1.60000E-01
 -1         6 5.14166E-02 2.99750E-02 1.60000E-01
 -1         7 4.84999E-02 2.99750E-02 1.60000E-01
 -1         8 4.55832E-02 2.99750E-02 1.60000E-01
 -1         9 4.26665E-02 2.99750E-02 1.60000E-01
 -1        10 3.97498E-02 2.99750E-02 1.60000E-01
 -1        11 3.68332E-02 2.99750E-02 1.60000E-01
 -1        12 3.39165E-02 2.99750E-02 1.60000E-01
 -1        13 3.09998E-02 2.99750E-02 1.60000E-01
 -1        14 6.60000E-02 2.99750E-02 0.00000E+00
 -1        15 6.30833E-02 2.99750E-02 0.00000E+00
 -1        16 6.01666E-02 2.99750E-02 0.00000E+00
 -1        17 5.72499E-02 2.99750E-02 0.00000E+00
 -1        18 5.43333E-02 2.99750E-02 0.00000E+00
 -1        19 5.14166E-02 2.99750E-02 0.00000E+00
 -1        20 4.84999E-02 2.99750E-02 0.00000E+00
 -1        21 4.55832E-02 2.99750E-02 0.00000E+00
 -1        22 4.26665E-02 2.99750E-02 0.00000E+00
 -1        23 3.97498E-02 2.99750E-02 0.00000E+00
 -1        24 3.68332E-02 2.99750E-02 0.00000E+00
 -1        25 3.39165E-02 2.99750E-02 0.00000E+00
 -1        26 3.09998E-02 2.99750E-02 0.00000E+00
 -1        27 6.60000E-02 3.00250E-02 1.60000E-01
 -1        28 6.30833E-02 3.00250E-02 1.60000E-01
 -1        29 6.01666E-02 3.00250E-02 1.60000E-01
 -1        30 5.72499E-02 3.00250E-02 1.60000E-01
 -1        31 5.43333E-02 3.00250E-02 1.60000E-01
 -1        32 5.14166E-02 3.00250E-02 1.60000E-01
 -1        33 4.84999E-02 3.00250E-02 1.60000E-01
 -1        34 4.55832E-02 3.00250E-02 1.60000E-01
 -1        35 4.26665E-02 3.00250E-02 1.60000E-01
 -1        36 3.97498E-02 3.00250E-02 1.60000E-01
 -1        37 3.68332E-02 3.00250E-02 1.60000E-01
 -1        38 3.39165E-02 3.00250E-02 1.60000E-01
 -1        39 3.09998E-02 3.00250E-02 1.60000E-01
 -1        40 6.60000E-02 3.00250E-02 0.00000E+00
 -1        41 6.30833E-02 3.00250E-02 0.00000E+00
 -1        42 6.01666E-02 3.00250E-02 0.00000E+00
 -1        43 5.72499E-02 3.00250E-02 0.00000E+00
 -1        44 5.43333E-02 3.00250E-02 0.00000E+00
 -1        45 5.14166E-02 3.00250E-02 0.00000E+00
 -1        46 4.84999E-02 3.00250E-02 0.00000E+00
 -1        47 4.55832E-02 3.00250E-02 0.00000E+00
 -1        48 4.26665E-02 3.00250E-02 0.00000E+00
 -1        49 3.97498E-02 3.00250E-02 0.00000E+00
 -1        50 3.68332E-02 3.00250E-02 0.00000E+00
 -1        51 3.39165E-02 3.00250E-02 0.00000E+00
 -1        52 3.09998E-02 3.00250E-02 0.00000E+00
 -3
    3C                            12                                     1
 -1         1    1    0    1
 -2        27        28        41        40         1         2        15        14
 -1         2    1    0    1
 -2        28        29        42        41         2         3        16        15
 -1         3    1    0    1
 -2        29        30        43        42         3         4        17        16
 -1         4    1    0    1
 -2        30        31        44        43         4         5        18        17
 -1         5    1    0    1
 -2        31        32        45        44         5         6        19        18
 -1         6    1    0    1
 -2        32        33        46        45         6         7        20        19
 -1         7    1    0    1
 -2        33        34        47        46         7         8        21        20
 -1         8    1    0    1
 -2        34        35        48        47         8         9        22        21
 -1         9    1    0    1
 -2        35        36        49        48         9        10        23        22
 -1        10    1    0    1
 -2        36        37        50        49        10        11        24        23
 -1        11    1    0    1
 -2        37        38        51        50        11        12        25        24
 -1        12    1    0    1
 -2        38        39        52        51        12        13        26        25
 -3
    1PSTEP                         1           1           1          
    1PGM                1.000000E+00                                  
    1PGK                6.952197E+03                                  
    1PHID                         -1                                  
    1PSUBC                         0                                  
    1PMODE                         1                                  
  100CL  101 13.27031299          52                     2    1MODAL      1
 -4  DISP        4    1
 -5  D1          1    2    1    0
 -5  D2          1    2    2    0
 -5  D3          1    2    3    0
 -5  ALL         1    2    0    0    1ALL
 -1         1 9.99480E-02 1.01446E+02 0.00000E+00
 -1         2 9.98639E-02 8.97895E+01 0.00000E+00
 -1         3 9.92948E-02 7.81716E+01 0.00000E+00
 -1         4 9.78104E-02 6.66735E+01 0.00000E+00
 -1         5 9.50398E-02 5.54236E+01 0.00000E+00
 -1         6 9.06700E-02 4.45902E+01 0.00000E+00
 -1         7 8.44449E-02 3.43749E+01 0.00000E+00
 -1         8 7.61622E-02 2.50059E+01 0.00000E+00
 -1         9 6.56698E-02 1.67321E+01 0.00000E+00
 -1        10 5.28606E-02 9.81764E+00 0.00000E+00
 -1        11 3.76667E-02 4.53672E+00 0.00000E+00
 -1        12 2.00514E-02 1.16972E+00 0.00000E+00
 -1        13 0.00000E+00 0.00000E+00 0.00000E+00
 -1        14 9.99480E-02 1.01446E+02 0.00000E+00
 -1        15 9.98639E-02 8.97895E+01 0.00000E+00
 -1        16 9.92948E-02 7.81716E+01 0.00000E+00
 -1        17 9.78104E-02 6.66735E+01 0.00000E+00
 -1        18 9.50398E-02 5.54236E+01 0.00000E+00
 -1        19 9.06700E-02 4.45902E+01 0.00000E+00
 -1        20 8.44449E-02 3.43749E+01 0.00000E+00
 -1        21 7.61622E-02 2.50059E+01 0.00000E+00
 -1        22 6.56698E-02 1.67321E+01 0.00000E+00
 -1        23 5.28606E-02 9.81764E+00 0.00000E+00
 -1        24 3.76667E-02 4.53672E+00 0.00000E+00
 -1        25 2.00514E-02 1.16972E+00 0.00000E+00
 -1        26 0.00000E+00 0.00000E+00 0.00000E+00
 -1        27-9.99480E-02 1.01446E+02 0.00000E+00
 -1        28-9.98639E-02 8.97895E+01 0.00000E+00
 -1        29-9.92948E-02 7.81716E+01 0.00000E+00
 -1        30-9.78104E-02 6.66735E+01 0.00000E+00
 -1        31-9.50398E-02 5.54236E+01 0.00000E+00
 -1        32-9.06700E-02 4.45902E+01 0.00000E+00
 -1        33-8.44449E-02 3.43749E+01 0.00000E+00
 -1        34-7.61622E-02 2.50059E+01 0.00000E+00
 -1        35-6.56698E-02 1.67321E+01 0.00000E+00
 -1        36-5.28606E-02 9.81764E+00 0.00000E+00
 -1        37-3.76667E-02 4.53672E+00 0.00000E+00
 -1        38-2.00514E-02 1.16972E+00 0.00000E+00
 -1        39 0.00000E+00 0.00000E+00 0.00000E+00
 -1        40-9.99480E-02 1.01446E+02 0.00000E+00
 -1        41-9.98639E-02 8.97895E+01 0.00000E+00
 -1        42-9.92948E-02 7.81716E+01 0.00000E+00
 -1        43-9.78104E-02 6.66735E+01 0.00000E+00
 -1        44-9.50398E-02 5.54236E+01 0.00000E+00
 -1        45-9.06700E-02 4.45902E+01 0.00000E+00
 -1        46-8.44449E-02 3.43749E+01 0.00000E+00
 -1        47-7.61622E-02 2.50059E+01 0.00000E+00
 -1        48-6.56698E-02 1.67321E+01 0.00000E+00
 -1        49-5.28606E-02 9.81764E+00 0.00000E+00
 -1        50-3.76667E-02 4.53672E+00 0.00000E+00
 -1        51-2.00514E-02 1.16972E+00 0.00000E+00
 -1        52 0.00000E+00 0.00000E+00 0.00000E+00
 -3
    1PSTEP                         2           1           1          
    1PGM                1.000000E+00                                  
    1PGK                6.952197E+03                                  
    1PHID                         -1                                  
    1PSUBC                         0                                  
    1PMODE                         1                                  
  100CL  101 13.27031299          52                     2    1MODAL      1
 -4  STRESS      6    1
 -5  SXX         1    4    1    1
 -5  SYY         1    4    2    2
 -5  SZZ         1    4    3    3
 -5  SXY         1    4    1    2
 -5  SYZ         1    4    2    3
 -5  SZX         1    4    3    1
 -1         1 1.62029E+08 2.31041E+04 6.15797E+07 2.73482E+04-7.39210E+07-1.39568E+00
 -1         2 6.28904E+08 2.17064E+04 2.38992E+08 2.72237E+06-6.94208E+07-1.49118E+00
 -1         3 1.97690E+09 1.89010E+04 7.51230E+08 5.08895E+06-6.04495E+07-1.59282E+00
 -1         4 4.09639E+09 1.61257E+04 1.55663E+09 7.12956E+06-5.15769E+07-1.82287E+00
 -1         5 6.87423E+09 1.33878E+04 2.61221E+09 8.84871E+06-4.29012E+07-1.73825E+00
 -1         6 1.01999E+10 1.07627E+04 3.87596E+09 1.02556E+07-3.45518E+07-1.25075E+00
 -1         7 1.39670E+10 8.30144E+03 5.30745E+09 1.13650E+07-2.66838E+07-7.84959E-01
 -1         8 1.80753E+10 6.04281E+03 6.86861E+09 1.21972E+07-1.94727E+07-2.05828E-01
 -1         9 2.24330E+10 4.07036E+03 8.52453E+09 1.27796E+07-1.31104E+07 2.19399E-01
 -1        10 2.69591E+10 2.43192E+03 1.02445E+10 1.31467E+07-7.80027E+06 3.72377E-01
 -1        11 3.15861E+10 1.17927E+03 1.20027E+10 1.33407E+07-3.75382E+06 3.52738E-01
 -1        12 3.62626E+10 3.88945E+02 1.37798E+10 1.34115E+07-1.18737E+06 2.26782E-01
 -1        13 3.86078E+10 1.13197E+02 1.46710E+10 1.34203E+07-3.01407E+05-8.52979E-03
 -1        14 1.62029E+08 2.31022E+04 6.15797E+07 2.75685E+04 7.39193E+07-1.39570E+00
 -1        15 6.28904E+08 2.16752E+04 2.38992E+08 2.72239E+06 6.94195E+07-1.49119E+00
 -1        16 1.97690E+09 1.88774E+04 7.51230E+08 5.08910E+06 6.04485E+07-1.59283E+00
 -1        17 4.09639E+09 1.61004E+04 1.55663E+09 7.12924E+06 5.15761E+07-1.82288E+00
 -1        18 6.87423E+09 1.34284E+04 2.61221E+09 8.84828E+06 4.29008E+07-1.73826E+00
 -1        19 1.01999E+10 1.08364E+04 3.87596E+09 1.02556E+07 3.45518E+07-1.25076E+00
 -1        20 1.39670E+10 8.37913E+03 5.30745E+09 1.13649E+07 2.66840E+07-7.84964E-01
 -1        21 1.80753E+10 6.12706E+03 6.86861E+09 1.21974E+07 1.94730E+07-2.05832E-01
 -1        22 2.24330E+10 4.11754E+03 8.52453E+09 1.27798E+07 1.31107E+07 2.19396E-01
 -1        23 2.69591E+10 2.44408E+03 1.02445E+10 1.31469E+07 7.80047E+06 3.72374E-01
 -1        24 3.15861E+10 1.16514E+03 1.20027E+10 1.33408E+07 3.75392E+06 3.52736E-01
 -1        25 3.62626E+10 3.54087E+02 1.37798E+10 1.34116E+07 1.18740E+06 2.26781E-01
 -1        26 3.86078E+10 7.27219E+01 1.46710E+10 1.34195E+07 3.01407E+05-8.53010E-03
 -1        27-1.62029E+08-2.31249E+04-6.15797E+07 2.73481E+04-7.39210E+07 9.08514E-01
 -1        28-6.28904E+08-2.16940E+04-2.38992E+08 2.72237E+06-6.94208E+07 1.01994E+00
 -1        29-1.97690E+09-1.89078E+04-7.51230E+08 5.08895E+06-6.04495E+07 1.16355E+00
 -1        30-4.09639E+09-1.61275E+04-1.55663E+09 7.12956E+06-5.15769E+07 1.46188E+00
 -1        31-6.87423E+09-1.33828E+04-2.61221E+09 8.84871E+06-4.29012E+07 1.46147E+00
 -1        32-1.01999E+10-1.07537E+04-3.87596E+09 1.02556E+07-3.45518E+07 1.04834E+00
 -1        33-1.39670E+10-8.29076E+03-5.30745E+09 1.13650E+07-2.66838E+07 6.30500E-01
 -1        34-1.80753E+10-6.04095E+03-6.86861E+09 1.21972E+07-1.94727E+07 7.52130E-02
 -1        35-2.24330E+10-4.07455E+03-8.52453E+09 1.27796E+07-1.31104E+07-3.31224E-01
 -1        36-2.69591E+10-2.43329E+03-1.02445E+10 1.31467E+07-7.80027E+06-4.59555E-01
 -1        37-3.15861E+10-1.18119E+03-1.20027E+10 1.33407E+07-3.75382E+06-4.12389E-01
 -1        38-3.62626E+10-3.86356E+02-1.37798E+10 1.34115E+07-1.18737E+06-2.58460E-01
 -1        39-3.86078E+10-1.17287E+02-1.46710E+10 1.34203E+07-3.01407E+05-8.53705E-03
 -1        40-1.62029E+08-2.30741E+04-6.15797E+07 2.75686E+04 7.39193E+07 9.08501E-01
 -1        41-6.28904E+08-2.16984E+04-2.38992E+08 2.72239E+06 6.94195E+07 1.01993E+00
 -1        42-1.97690E+09-1.88764E+04-7.51230E+08 5.08910E+06 6.04485E+07 1.16354E+00
 -1        43-4.09639E+09-1.61152E+04-1.55663E+09 7.12924E+06 5.15761E+07 1.46187E+00
 -1        44-6.87423E+09-1.34261E+04-2.61221E+09 8.84828E+06 4.29008E+07 1.46146E+00
 -1        45-1.01999E+10-1.08363E+04-3.87596E+09 1.02556E+07 3.45518E+07 1.04833E+00
 -1        46-1.39670E+10-8.38510E+03-5.30745E+09 1.13649E+07 2.66840E+07 6.30494E-01
 -1        47-1.80753E+10-6.12575E+03-6.86861E+09 1.21974E+07 1.94730E+07 7.52087E-02
 -1        48-2.24330E+10-4.12578E+03-8.52453E+09 1.27798E+07 1.31107E+07-3.31227E-01
 -1        49-2.69591E+10-2.44003E+03-1.02445E+10 1.31469E+07 7.80047E+06-4.59558E-01
 -1        50-3.15861E+10-1.16610E+03-1.20027E+10 1.33408E+07 3.75392E+06-4.12390E-01
 -1        51-3.62626E+10-3.54762E+02-1.37798E+10 1.34116E+07 1.18740E+06-2.58461E-01
 -1        52-3.86078E+10-7.35329E+01-1.46710E+10 1.34195E+07 3.01407E+05-8.53733E-03
 -3
    1PSTEP                         3           1           1          
    1PGM                1.000000E+00                                  
    1PGK                6.952197E+03                                  
    1PHID                         -1                                  
    1PSUBC                         0                                  
    1PMODE                         1                                  
  100CL  101 13.27031299          52                     2    1MODAL      1
 -4  TOSTRAIN    6    1
 -5  EXX         1    4    1    1
 -5  EYY         1    4    2    2
 -5  EZZ         1    4    3    3
 -5  EXY         1    4    1    2
 -5  EYZ         1    4    2    3
 -5  EZX         1    4    3    1
 -1         1 2.88491E-02-1.76791E-02-1.32304E-10 7.85443E-06-2.12302E-02-4.00841E-10
 -1         2 1.11983E-01-6.86324E-02-8.62113E-11 7.81867E-04-1.99377E-02-4.28268E-10
 -1         3 3.52014E-01-2.15748E-01 1.78263E-10 1.46155E-03-1.73612E-02-4.57458E-10
 -1         4 7.29419E-01-4.47062E-01 2.67314E-10 2.04762E-03-1.48129E-02-5.23529E-10
 -1         5 1.22406E+00-7.50226E-01 1.65793E-10 2.54136E-03-1.23213E-02-4.99228E-10
 -1         6 1.81624E+00-1.11318E+00 1.58723E-10 2.94540E-03-9.92331E-03-3.59216E-10
 -1         7 2.48702E+00-1.52430E+00 2.57754E-12 3.26405E-03-7.66360E-03-2.25441E-10
 -1         8 3.21857E+00-1.97267E+00-5.61539E-11 3.50304E-03-5.59258E-03-5.91139E-11
 -1         9 3.99452E+00-2.44825E+00 6.36839E-11 3.67030E-03-3.76532E-03 6.30117E-11
 -1        10 4.80046E+00-2.94222E+00 9.23561E-11 3.77575E-03-2.24024E-03 1.06947E-10
 -1        11 5.62436E+00-3.44719E+00 9.56009E-11 3.83146E-03-1.07810E-03 1.01307E-10
 -1        12 6.45708E+00-3.95756E+00 1.16553E-10 3.85178E-03-3.41014E-04 6.51319E-11
 -1        13 6.87469E+00-4.21352E+00 1.05629E-10 3.85434E-03-8.65645E-05-2.44976E-12
 -1        14 2.88491E-02-1.76791E-02 1.32304E-10 7.91770E-06 2.12297E-02-4.00845E-10
 -1        15 1.11983E-01-6.86324E-02 8.62113E-11 7.81873E-04 1.99373E-02-4.28272E-10
 -1        16 3.52014E-01-2.15748E-01-1.78263E-10 1.46159E-03 1.73609E-02-4.57461E-10
 -1        17 7.29419E-01-4.47062E-01-2.67314E-10 2.04752E-03 1.48127E-02-5.23532E-10
 -1        18 1.22406E+00-7.50226E-01-1.65793E-10 2.54123E-03 1.23212E-02-4.99230E-10
 -1        19 1.81624E+00-1.11318E+00-1.58723E-10 2.94541E-03 9.92331E-03-3.59218E-10
 -1        20 2.48702E+00-1.52430E+00-2.57754E-12 3.26401E-03 7.66366E-03-2.25442E-10
 -1        21 3.21857E+00-1.97267E+00 5.61539E-11 3.50309E-03 5.59267E-03-5.91151E-11
 -1        22 3.99452E+00-2.44825E+00-6.36839E-11 3.67038E-03 3.76540E-03 6.30108E-11
 -1        23 4.80046E+00-2.94222E+00-9.23561E-11 3.77580E-03 2.24030E-03 1.06946E-10
 -1        24 5.62436E+00-3.44719E+00-9.56009E-11 3.83149E-03 1.07813E-03 1.01306E-10
 -1        25 6.45708E+00-3.95756E+00-1.16553E-10 3.85182E-03 3.41023E-04 6.51316E-11
 -1        26 6.87469E+00-4.21352E+00-1.05629E-10 3.85410E-03 8.65645E-05-2.44985E-12
 -1        27-2.88491E-02 1.76791E-02-1.32304E-10 7.85439E-06-2.12302E-02 2.60926E-10
 -1        28-1.11983E-01 6.86324E-02-8.62113E-11 7.81867E-04-1.99377E-02 2.92929E-10
 -1        29-3.52014E-01 2.15748E-01 1.78263E-10 1.46155E-03-1.73612E-02 3.34171E-10
 -1        30-7.29419E-01 4.47062E-01 2.67314E-10 2.04762E-03-1.48129E-02 4.19853E-10
 -1        31-1.22406E+00 7.50226E-01 1.65793E-10 2.54136E-03-1.23213E-02 4.19735E-10
 -1        32-1.81624E+00 1.11318E+00 1.58723E-10 2.94540E-03-9.92331E-03 3.01083E-10
 -1        33-2.48702E+00 1.52430E+00 2.57754E-12 3.26405E-03-7.66360E-03 1.81080E-10
 -1        34-3.21857E+00 1.97267E+00-5.61539E-11 3.50304E-03-5.59258E-03 2.16012E-11
 -1        35-3.99452E+00 2.44825E+00 6.36839E-11 3.67030E-03-3.76532E-03-9.51277E-11
 -1        36-4.80046E+00 2.94222E+00 9.23561E-11 3.77575E-03-2.24024E-03-1.31985E-10
 -1        37-5.62436E+00 3.44719E+00 9.56009E-11 3.83146E-03-1.07810E-03-1.18438E-10
 -1        38-6.45708E+00 3.95756E+00 1.16553E-10 3.85178E-03-3.41014E-04-7.42299E-11
 -1        39-6.87469E+00 4.21352E+00 1.05629E-10 3.85434E-03-8.65645E-05-2.45185E-12
 -1        40-2.88491E-02 1.76791E-02 1.32304E-10 7.91774E-06 2.12297E-02 2.60922E-10
 -1        41-1.11983E-01 6.86324E-02 8.62113E-11 7.81873E-04 1.99373E-02 2.92925E-10
 -1        42-3.52014E-01 2.15748E-01-1.78263E-10 1.46159E-03 1.73609E-02 3.34168E-10
 -1        43-7.29419E-01 4.47062E-01-2.67314E-10 2.04752E-03 1.48127E-02 4.19851E-10
 -1        44-1.22406E+00 7.50226E-01-1.65793E-10 2.54123E-03 1.23212E-02 4.19733E-10
 -1        45-1.81624E+00 1.11318E+00-1.58723E-10 2.94541E-03 9.92331E-03 3.01081E-10
 -1        46-2.48702E+00 1.52430E+00-2.57754E-12 3.26401E-03 7.66366E-03 1.81078E-10
 -1        47-3.21857E+00 1.97267E+00 5.61539E-11 3.50309E-03 5.59267E-03 2.16000E-11
 -1        48-3.99452E+00 2.44825E+00-6.36839E-11 3.67038E-03 3.76540E-03-9.51286E-11
 -1        49-4.80046E+00 2.94222E+00-9.23561E-11 3.77580E-03 2.24030E-03-1.31985E-10
 -1        50-5.62436E+00 3.44719E+00-9.56009E-11 3.83149E-03 1.07813E-03-1.18439E-10
 -1        51-6.45708E+00 3.95756E+00-1.16553E-10 3.85182E-03 3.41023E-04-7.42301E-11
 -1        52-6.87469E+00 4.21352E+00-1.05629E-10 3.85410E-03 8.65645E-05-2.45193E-12
 -3
    1PSTEP                         4           1           1          
    1PGM                1.000000E+00                                  
    1PGK                6.952197E+03                                  
    1PHID                         -1                                  
    1PSUBC                         0                                  
    1PMODE                         1                                  
  100CL  101 13.27031299          52                     2    1MODAL      1
 -4  ERROR       1    1
 -5  STR(%)      1    1    0    0
 -1         1 7.91135E+01
 -1         2 1.20252E+02
 -1         3 1.21371E+02
 -1         4 1.21483E+02
 -1         5 1.21504E+02
 -1         6 1.21509E+02
 -1         7 1.21511E+02
 -1         8 1.21512E+02
 -1         9 1.21512E+02
 -1        10 1.21512E+02
 -1        11 1.21512E+02
 -1        12 1.21512E+02
 -1        13 1.21512E+02
 -1        14 7.91135E+01
 -1        15 1.20252E+02
 -1        16 1.21371E+02
 -1        17 1.21483E+02
 -1        18 1.21504E+02
 -1        19 1.21509E+02
 -1        20 1.21511E+02
 -1        21 1.21512E+02
 -1        22 1.21512E+02
 -1        23 1.21512E+02
 -1        24 1.21512E+02
 -1        25 1.21512E+02
 -1        26 1.21512E+02
 -1        27 7.91135E+01
 -1        28 1.20252E+02
 -1        29 1.21371E+02
 -1        30 1.21483E+02
 -1        31 1.21504E+02
 -1        32 1.21509E+02
 -1        33 1.21511E+02
 -1        34 1.21512E+02
 -1        35 1.21512E+02
 -1        36 1.21512E+02
 -1        37 1.21512E+02
 -1        38 1.21512E+02
 -1        39 1.21512E+02
 -1        40 7.91135E+01
 -1        41 1.20252E+02
 -1        42 1.21371E+02
 -1        43 1.21483E+02
 -1        44 1.21504E+02
 -1        45 1.21509E+02
 -1        46 1.21511E+02
 -1        47 1.21512E+02
 -1        48 1.21512E+02
 -1        49 1.21512E+02
 -1        50 1.21512E+02
 -1        51 1.21512E+02
 -1        52 1.21512E+02
 -3
    1PSTEP                         5           1           1          
    1PGM                1.000000E+00                                  
    1PGK                2.773737E+05                                  
    1PHID                         -1                                  
    1PSUBC                         0                                  
    1PMODE                         2                                  
  100CL  102 83.82099360          52                     2    2MODAL      1
 -4  DISP        4    1
 -5  D1          1    2    1    0
 -5  D2          1    2    2    0
 -5  D3          1    2    3    0
 -5  ALL         1    2    0    0    1ALL
 -1         1 3.50187E-01 1.01805E+02 0.00000E+00
 -1         2 3.47065E-01 6.11310E+01 0.00000E+00
 -1         3 3.27975E-01 2.17524E+01 0.00000E+00
 -1         4 2.84441E-01-1.39731E+01 0.00000E+00
 -1         5 2.15667E-01-4.31470E+01 0.00000E+00
 -1         6 1.27495E-01-6.31654E+01 0.00000E+00
 -1         7 3.07971E-02-7.23994E+01 0.00000E+00
 -1         8-6.05607E-02-7.06630E+01 0.00000E+00
 -1         9-1.31948E-01-5.94328E+01 0.00000E+00
 -1        10-1.70058E-01-4.18150E+01 0.00000E+00
 -1        11-1.64537E-01-2.22961E+01 0.00000E+00
 -1        12-1.08827E-01-6.34891E+00 0.00000E+00
 -1        13 0.00000E+00 0.00000E+00 0.00000E+00
 -1        14 3.50187E-01 1.01805E+02 0.00000E+00
 -1        15 3.47065E-01 6.11310E+01 0.00000E+00
 -1        16 3.27975E-01 2.17524E+01 0.00000E+00
 -1        17 2.84441E-01-1.39731E+01 0.00000E+00
 -1        18 2.15667E-01-4.31470E+01 0.00000E+00
 -1        19 1.27495E-01-6.31654E+01 0.00000E+00
 -1        20 3.07971E-02-7.23994E+01 0.00000E+00
 -1        21-6.05607E-02-7.06630E+01 0.00000E+00
 -1        22-1.31948E-01-5.94328E+01 0.00000E+00
 -1        23-1.70058E-01-4.18150E+01 0.00000E+00
 -1        24-1.64537E-01-2.22961E+01 0.00000E+00
 -1        25-1.08827E-01-6.34891E+00 0.00000E+00
 -1        26 0.00000E+00 0.00000E+00 0.00000E+00
 -1        27-3.50187E-01 1.01805E+02 0.00000E+00
 -1        28-3.47065E-01 6.11310E+01 0.00000E+00
 -1        29-3.27975E-01 2.17524E+01 0.00000E+00
 -1        30-2.84441E-01-1.39731E+01 0.00000E+00
 -1        31-2.15667E-01-4.31470E+01 0.00000E+00
 -1        32-1.27495E-01-6.31654E+01 0.00000E+00
 -1        33-3.07971E-02-7.23994E+01 0.00000E+00
 -1        34 6.05607E-02-7.06630E+01 0.00000E+00
 -1        35 1.31948E-01-5.94328E+01 0.00000E+00
 -1        36 1.70058E-01-4.18150E+01 0.00000E+00
 -1        37 1.64537E-01-2.22961E+01 0.00000E+00
 -1        38 1.08827E-01-6.34891E+00 0.00000E+00
 -1        39 0.00000E+00 0.00000E+00 0.00000E+00
 -1        40-3.50187E-01 1.01805E+02 0.00000E+00
 -1        41-3.47065E-01 6.11310E+01 0.00000E+00
 -1        42-3.27975E-01 2.17524E+01 0.00000E+00
 -1        43-2.84441E-01-1.39731E+01 0.00000E+00
 -1        44-2.15667E-01-4.31470E+01 0.00000E+00
 -1        45-1.27495E-01-6.31654E+01 0.00000E+00
 -1        46-3.07971E-02-7.23994E+01 0.00000E+00
 -1        47 6.05607E-02-7.06630E+01 0.00000E+00
 -1        48 1.31948E-01-5.94328E+01 0.00000E+00
 -1        49 1.70058E-01-4.18150E+01 0.00000E+00
 -1        50 1.64537E-01-2.22961E+01 0.00000E+00
 -1        51 1.08827E-01-6.34891E+00 0.00000E+00
 -1        52 0.00000E+00 0.00000E+00 0.00000E+00
 -3
    1PSTEP                         6           1           1          
    1PGM                1.000000E+00                                  
    1PGK                2.773737E+05                                  
    1PHID                         -1                                  
    1PSUBC                         0                                  
    1PMODE                         2                                  
  100CL  102 83.82099360          52                     2    2MODAL      1
 -4  STRESS      6    1
 -5  SXX         1    4    1    1
 -5  SYY         1    4    2    2
 -5  SZZ         1    4    3    3
 -5  SXY         1    4    1    2
 -5  SYZ         1    4    2    3
 -5  SZX         1    4    3    1
 -1         1 6.01200E+09 7.85299E+05 2.28486E+09 3.80996E+06-2.51303E+09-3.18761E-02
 -1         2 2.13843E+10 5.91581E+05 8.12625E+09 9.53698E+07-1.89306E+09-9.37591E-02
 -1         3 6.02896E+10 2.15620E+05 2.29101E+10 1.41551E+08-6.90030E+08-7.96418E-02
 -1         4 1.08122E+11-1.24221E+05 4.10862E+10 1.44973E+08 3.97493E+08 3.34373E-02
 -1         5 1.51096E+11-4.01342E+05 5.74161E+10 1.11354E+08 1.28436E+09-9.37169E-02
 -1         6 1.77978E+11-5.91752E+05 6.76313E+10 4.96537E+07 1.89372E+09-2.66009E-01
 -1         7 1.81044E+11-6.80475E+05 6.87966E+10-2.86799E+07 2.17771E+09-5.36529E-01
 -1         8 1.56677E+11-6.66101E+05 5.95371E+10-1.11111E+08 2.13172E+09-1.12708E+00
 -1         9 1.05415E+11-5.62841E+05 4.00574E+10-1.85816E+08 1.80115E+09-1.45328E+00
 -1        10 3.13741E+10-4.00186E+05 1.19220E+10-2.43574E+08 1.28056E+09-1.26805E+00
 -1        11-5.89481E+10-2.20773E+05-2.24004E+10-2.79498E+08 7.06388E+08-8.73154E-01
 -1        12-1.58403E+11-7.66853E+04-6.01932E+10-2.94385E+08 2.45277E+08-4.57844E-01
 -1        13-2.09541E+11-2.04426E+04-7.96255E+10-2.96316E+08 6.53023E+07-1.39708E-02
 -1        14 6.01200E+09 7.85299E+05 2.28486E+09 3.81011E+06 2.51303E+09-3.24982E-02
 -1        15 2.13843E+10 5.91560E+05 8.12625E+09 9.53697E+07 1.89306E+09-9.43742E-02
 -1        16 6.02896E+10 2.15631E+05 2.29101E+10 1.41551E+08 6.90029E+08-8.02189E-02
 -1        17 1.08122E+11-1.24207E+05 4.10862E+10 1.44973E+08-3.97494E+08 3.29139E-02
 -1        18 1.51096E+11-4.01367E+05 5.74161E+10 1.11354E+08-1.28436E+09-9.42014E-02
 -1        19 1.77978E+11-5.91794E+05 6.76313E+10 4.96538E+07-1.89372E+09-2.66450E-01
 -1        20 1.81044E+11-6.80561E+05 6.87966E+10-2.86795E+07-2.17771E+09-5.36909E-01
 -1        21 1.56677E+11-6.66185E+05 5.95371E+10-1.11112E+08-2.13172E+09-1.12740E+00
 -1        22 1.05415E+11-5.62850E+05 4.00574E+10-1.85817E+08-1.80115E+09-1.45352E+00
 -1        23 3.13741E+10-4.00153E+05 1.19220E+10-2.43574E+08-1.28057E+09-1.26822E+00
 -1        24-5.89481E+10-2.20710E+05-2.24004E+10-2.79498E+08-7.06388E+08-8.73262E-01
 -1        25-1.58403E+11-7.66119E+04-6.01932E+10-2.94385E+08-2.45277E+08-4.57890E-01
 -1        26-2.09541E+11-2.03671E+04-7.96255E+10-2.96315E+08-6.53023E+07-1.39853E-02
 -1        27-6.01200E+09-7.85316E+05-2.28486E+09 3.80996E+06-2.51303E+09-8.51814E-01
 -1        28-2.13843E+10-5.91569E+05-8.12625E+09 9.53698E+07-1.89306E+09-7.76636E-01
 -1        29-6.02896E+10-2.15633E+05-2.29101E+10 1.41551E+08-6.90030E+08-7.61747E-01
 -1        30-1.08122E+11 1.24202E+05-4.10862E+10 1.44973E+08 3.97493E+08-8.29716E-01
 -1        31-1.51096E+11 4.01342E+05-5.74161E+10 1.11354E+08 1.28436E+09-6.55613E-01
 -1        32-1.77978E+11 5.91755E+05-6.76313E+10 4.96537E+07 1.89372E+09-4.52380E-01
 -1        33-1.81044E+11 6.80478E+05-6.87966E+10-2.86799E+07 2.17771E+09-1.15142E-01
 -1        34-1.56677E+11 6.66102E+05-5.95371E+10-1.11111E+08 2.13172E+09 6.05280E-01
 -1        35-1.05415E+11 5.62831E+05-4.00574E+10-1.85816E+08 1.80115E+09 1.07028E+00
 -1        36-3.13741E+10 4.00190E+05-1.19220E+10-2.43574E+08 1.28056E+09 9.97983E-01
 -1        37 5.89481E+10 2.20772E+05 2.24004E+10-2.79498E+08 7.06388E+08 7.07538E-01
 -1        38 1.58403E+11 7.66782E+04 6.01932E+10-2.94385E+08 2.45277E+08 3.87988E-01
 -1        39 2.09541E+11 2.04436E+04 7.96255E+10-2.96316E+08 6.53023E+07-1.39378E-02
 -1        40-6.01200E+09-7.85303E+05-2.28486E+09 3.81011E+06 2.51303E+09-8.52437E-01
 -1        41-2.13843E+10-5.91573E+05-8.12625E+09 9.53697E+07 1.89306E+09-7.77251E-01
 -1        42-6.02896E+10-2.15637E+05-2.29101E+10 1.41551E+08 6.90029E+08-7.62326E-01
 -1        43-1.08122E+11 1.24227E+05-4.10862E+10 1.44973E+08-3.97494E+08-8.30238E-01
 -1        44-1.51096E+11 4.01368E+05-5.74161E+10 1.11354E+08-1.28436E+09-6.56098E-01
 -1        45-1.77978E+11 5.91805E+05-6.76313E+10 4.96538E+07-1.89372E+09-4.52821E-01
 -1        46-1.81044E+11 6.80561E+05-6.87966E+10-2.86795E+07-2.17771E+09-1.15521E-01
 -1        47-1.56677E+11 6.66207E+05-5.95371E+10-1.11112E+08-2.13172E+09 6.04961E-01
 -1        48-1.05415E+11 5.62864E+05-4.00574E+10-1.85817E+08-1.80115E+09 1.07004E+00
 -1        49-3.13741E+10 4.00142E+05-1.19220E+10-2.43574E+08-1.28057E+09 9.97814E-01
 -1        50 5.89481E+10 2.20713E+05 2.24004E+10-2.79498E+08-7.06388E+08 7.07430E-01
 -1        51 1.58403E+11 7.66142E+04 6.01932E+10-2.94385E+08-2.45277E+08 3.87942E-01
 -1        52 2.09541E+11 2.03726E+04 7.96255E+10-2.96315E+08-6.53023E+07-1.39521E-02
 -3
    1PSTEP                         7           1           1          
    1PGM                1.000000E+00                                  
    1PGK                2.773737E+05                                  
    1PHID                         -1                                  
    1PSUBC                         0                                  
    1PMODE                         2                                  
  100CL  102 83.82099360          52                     2    2MODAL      1
 -4  TOSTRAIN    6    1
 -5  EXX         1    4    1    1
 -5  EYY         1    4    2    2
 -5  EZZ         1    4    3    3
 -5  EXY         1    4    1    2
 -5  EYZ         1    4    2    3
 -5  EZX         1    4    3    1
 -1         1 1.07044E+00-6.55988E-01-1.97845E-10 1.09422E-03-7.21745E-01-9.15485E-12
 -1         2 3.80772E+00-2.33370E+00 8.66721E-11 2.73903E-02-5.43690E-01-2.69277E-11
 -1         3 1.07354E+01-6.57974E+00 2.59966E-10 4.06537E-02-1.98177E-01-2.28732E-11